REMARK SMILES CC(=O)N[C@H]1[C@H]([C@H](O)[C@H](O)CO)O[C@@](O[C@@H]2[C@@H](O)[C@H](O)O[C@H](CO)[C@@H]2O)(C(=O)[O-])C[C@@H]1O
REMARK SMILES IDX 14 1 30 2 13 3 31 4 6 5 5 6 27 7 28 8 29 9 15 10 16 11 25 12
REMARK SMILES IDX 17 13 22 14 19 15 21 16 26 17 18 19 23 21 24 22 20 24 32 26
REMARK SMILES IDX 7 28 9 29 11 30 12 31 10 33 8 35 4 37 2 38 1 40 3 41
REMARK H PARENT 26 18 18 20 24 23 20 25 32 27 12 32 10 34 8 36 4 39
ROOT
ATOM      1  C   UNL     1      -0.742  -0.399   4.510  1.00  0.00     0.213 C 
ATOM      2  C   UNL     1      -2.092   0.170   4.976  1.00  0.00     0.106 C 
ATOM      3  O   UNL     1       0.103  -0.873   5.578  1.00  0.00    -0.336 OA
ATOM      4  C   UNL     1      -1.969   1.055   6.203  1.00  0.00     0.145 C 
ATOM      5  C   UNL     1       0.097  -0.252   6.866  1.00  0.00     0.178 C 
ATOM      6  C   UNL     1      -1.283   0.266   7.321  1.00  0.00     0.142 C 
ENDROOT
BRANCH   1   7
ATOM      7  C   UNL     1      -1.106  -1.697   3.572  1.00  0.00     0.101 C 
ATOM      8  O   UNL     1      -2.300  -1.767   3.154  1.00  0.00    -0.544 OA
ATOM      9  O   UNL     1      -0.127  -2.459   3.288  1.00  0.00    -0.544 OA
ENDBRANCH   1   7
BRANCH   1  10
ATOM     10  O   UNL     1      -0.098   0.685   3.753  1.00  0.00    -0.336 OA
BRANCH  10  11
ATOM     11  C   UNL     1       0.597   0.269   2.564  1.00  0.00     0.187 C 
ATOM     12  C   UNL     1       0.708   1.421   1.543  1.00  0.00     0.177 C 
ATOM     13  C   UNL     1       1.941  -0.394   2.890  1.00  0.00     0.202 C 
ATOM     14  C   UNL     1       1.915   2.330   1.743  1.00  0.00     0.178 C 
ATOM     15  C   UNL     1       3.132   0.588   2.892  1.00  0.00     0.279 C 
ATOM     16  O   UNL     1       3.119   1.564   1.857  1.00  0.00    -0.342 OA
BRANCH  12  17
ATOM     17  O   UNL     1      -0.509   2.177   1.470  1.00  0.00    -0.387 OA
ATOM     18  H   UNL     1      -1.232   1.554   1.681  1.00  0.00     0.211 HD
ENDBRANCH  12  17
BRANCH  13  19
ATOM     19  O   UNL     1       2.143  -1.458   1.942  1.00  0.00    -0.385 OA
ATOM     20  H   UNL     1       1.449  -2.121   2.201  1.00  0.00     0.211 HD
ENDBRANCH  13  19
BRANCH  14  21
ATOM     21  C   UNL     1       1.739   3.374   2.853  1.00  0.00     0.191 C 
BRANCH  21  22
ATOM     22  O   UNL     1       2.979   4.035   3.115  1.00  0.00    -0.394 OA
ATOM     23  H   UNL     1       3.614   3.303   3.267  1.00  0.00     0.210 HD
ENDBRANCH  21  22
ENDBRANCH  14  21
BRANCH  15  24
ATOM     24  O   UNL     1       3.332   1.242   4.138  1.00  0.00    -0.366 OA
ATOM     25  H   UNL     1       2.469   1.282   4.604  1.00  0.00     0.213 HD
ENDBRANCH  15  24
ENDBRANCH  10  11
ENDBRANCH   1  10
BRANCH   4  26
ATOM     26  O   UNL     1      -1.241   2.252   5.905  1.00  0.00    -0.391 OA
ATOM     27  H   UNL     1      -1.658   2.639   5.110  1.00  0.00     0.211 HD
ENDBRANCH   4  26
BRANCH   5  28
ATOM     28  C   UNL     1       1.238   0.790   7.049  1.00  0.00     0.176 C 
BRANCH  28  29
ATOM     29  C   UNL     1       2.599   0.103   7.310  1.00  0.00     0.171 C 
BRANCH  29  30
ATOM     30  C   UNL     1       3.765   1.098   7.426  1.00  0.00     0.190 C 
BRANCH  30  31
ATOM     31  O   UNL     1       3.550   1.960   8.552  1.00  0.00    -0.394 OA
ATOM     32  H   UNL     1       3.038   2.716   8.207  1.00  0.00     0.210 HD
ENDBRANCH  30  31
ENDBRANCH  29  30
BRANCH  29  33
ATOM     33  O   UNL     1       2.534  -0.617   8.557  1.00  0.00    -0.388 OA
ATOM     34  H   UNL     1       2.796   0.031   9.242  1.00  0.00     0.211 HD
ENDBRANCH  29  33
ENDBRANCH  28  29
BRANCH  28  35
ATOM     35  O   UNL     1       1.360   1.672   5.933  1.00  0.00    -0.388 OA
ATOM     36  H   UNL     1       0.442   1.957   5.716  1.00  0.00     0.211 HD
ENDBRANCH  28  35
ENDBRANCH   5  28
BRANCH   6  37
ATOM     37  N   UNL     1      -2.116  -0.869   7.756  1.00  0.00    -0.348 N 
ATOM     38  C   UNL     1      -3.222  -0.703   8.552  1.00  0.00     0.217 C 
ATOM     39  H   UNL     1      -2.023  -1.732   7.227  1.00  0.00     0.163 HD
ATOM     40  C   UNL     1      -4.017  -1.962   8.771  1.00  0.00     0.114 C 
ATOM     41  O   UNL     1      -3.555   0.372   9.039  1.00  0.00    -0.275 OA
ENDBRANCH   6  37
TORSDOF 16
