REMARK SMILES CC(=O)N[C@H]1[C@H]([C@H](O)[C@H](O)CO)O[C@@](OC[C@H]2O[C@@H](O)[C@H](O)[C@@H](O)[C@H]2O)(C(=O)[O-])C[C@@H]1O
REMARK SMILES IDX 14 1 30 2 13 3 31 4 6 5 5 6 27 7 28 8 29 9 15 10 16 11 17 12
REMARK SMILES IDX 25 13 18 14 23 15 19 16 21 17 26 18 24 20 20 22 22 24 32 26
REMARK SMILES IDX 7 28 9 29 11 30 12 31 10 33 8 35 4 37 2 38 1 40 3 41
REMARK H PARENT 26 19 24 21 20 23 22 25 32 27 12 32 10 34 8 36 4 39
ROOT
ATOM      1  C   UNL     1       1.776   1.784  -1.737  1.00  0.00     0.212 C 
ATOM      2  C   UNL     1       1.779   3.190  -2.370  1.00  0.00     0.106 C 
ATOM      3  O   UNL     1       0.843   0.895  -2.396  1.00  0.00    -0.336 OA
ATOM      4  C   UNL     1       0.389   3.726  -2.694  1.00  0.00     0.145 C 
ATOM      5  C   UNL     1      -0.494   1.361  -2.637  1.00  0.00     0.178 C 
ATOM      6  C   UNL     1      -0.437   2.671  -3.443  1.00  0.00     0.142 C 
ENDROOT
BRANCH   1   7
ATOM      7  C   UNL     1       3.272   1.157  -1.952  1.00  0.00     0.101 C 
ATOM      8  O   UNL     1       3.386  -0.098  -1.823  1.00  0.00    -0.544 OA
ATOM      9  O   UNL     1       4.195   2.003  -2.173  1.00  0.00    -0.544 OA
ENDBRANCH   1   7
BRANCH   1  10
ATOM     10  O   UNL     1       1.433   1.909  -0.327  1.00  0.00    -0.342 OA
BRANCH  10  11
ATOM     11  C   UNL     1       2.567   2.050   0.537  1.00  0.00     0.199 C 
BRANCH  11  12
ATOM     12  C   UNL     1       2.096   2.361   1.967  1.00  0.00     0.179 C 
ATOM     13  C   UNL     1       1.418   3.738   2.149  1.00  0.00     0.177 C 
ATOM     14  O   UNL     1       3.121   2.127   2.951  1.00  0.00    -0.342 OA
ATOM     15  C   UNL     1       2.422   4.884   2.387  1.00  0.00     0.179 C 
ATOM     16  C   UNL     1       4.114   3.143   3.060  1.00  0.00     0.279 C 
ATOM     17  C   UNL     1       3.459   4.483   3.450  1.00  0.00     0.201 C 
BRANCH  13  18
ATOM     18  O   UNL     1       0.502   4.080   1.110  1.00  0.00    -0.387 OA
ATOM     19  H   UNL     1       0.379   3.286   0.547  1.00  0.00     0.211 HD
ENDBRANCH  13  18
BRANCH  15  20
ATOM     20  O   UNL     1       3.063   5.302   1.173  1.00  0.00    -0.387 OA
ATOM     21  H   UNL     1       3.799   4.684   0.982  1.00  0.00     0.211 HD
ENDBRANCH  15  20
BRANCH  16  22
ATOM     22  O   UNL     1       4.852   3.278   1.864  1.00  0.00    -0.366 OA
ATOM     23  H   UNL     1       5.315   2.429   1.732  1.00  0.00     0.213 HD
ENDBRANCH  16  22
BRANCH  17  24
ATOM     24  O   UNL     1       2.843   4.374   4.744  1.00  0.00    -0.385 OA
ATOM     25  H   UNL     1       2.445   3.484   4.796  1.00  0.00     0.211 HD
ENDBRANCH  17  24
ENDBRANCH  11  12
ENDBRANCH  10  11
ENDBRANCH   1  10
BRANCH   4  26
ATOM     26  O   UNL     1      -0.316   4.137  -1.524  1.00  0.00    -0.391 OA
ATOM     27  H   UNL     1       0.287   4.681  -0.976  1.00  0.00     0.211 HD
ENDBRANCH   4  26
BRANCH   5  28
ATOM     28  C   UNL     1      -1.391   1.353  -1.373  1.00  0.00     0.176 C 
BRANCH  28  29
ATOM     29  C   UNL     1      -2.798   1.955  -1.552  1.00  0.00     0.171 C 
BRANCH  29  30
ATOM     30  C   UNL     1      -3.630   1.269  -2.643  1.00  0.00     0.190 C 
BRANCH  30  31
ATOM     31  O   UNL     1      -4.939   1.857  -2.650  1.00  0.00    -0.394 OA
ATOM     32  H   UNL     1      -5.417   1.446  -3.391  1.00  0.00     0.210 HD
ENDBRANCH  30  31
ENDBRANCH  29  30
BRANCH  29  33
ATOM     33  O   UNL     1      -3.519   1.794  -0.306  1.00  0.00    -0.388 OA
ATOM     34  H   UNL     1      -4.433   2.063  -0.530  1.00  0.00     0.211 HD
ENDBRANCH  29  33
ENDBRANCH  28  29
BRANCH  28  35
ATOM     35  O   UNL     1      -1.583  -0.017  -0.940  1.00  0.00    -0.388 OA
ATOM     36  H   UNL     1      -2.127   0.064  -0.133  1.00  0.00     0.211 HD
ENDBRANCH  28  35
ENDBRANCH   5  28
BRANCH   6  37
ATOM     37  N   UNL     1       0.142   2.389  -4.768  1.00  0.00    -0.348 N 
ATOM     38  C   UNL     1      -0.039   3.216  -5.846  1.00  0.00     0.217 C 
ATOM     39  H   UNL     1       0.921   1.735  -4.772  1.00  0.00     0.163 HD
ATOM     40  C   UNL     1       0.783   2.846  -7.051  1.00  0.00     0.114 C 
ATOM     41  O   UNL     1      -0.800   4.178  -5.848  1.00  0.00    -0.275 OA
ENDBRANCH   6  37
TORSDOF 16
