MODEL 1
REMARK VINA RESULT:    -6.823      0.000      0.000
REMARK INTER + INTRA:         -14.143
REMARK INTER:                 -11.609
REMARK INTRA:                  -2.534
REMARK UNBOUND:                -2.534
REMARK SMILES CC(=O)N[C@H]1[C@H]([C@H](O)[C@H](O)CO)O[C@@](O[C@@H]2[C@@H](O)[C@H](O)O[C@H](CO)[C@@H]2O)(C(=O)[O-])C[C@@H]1O
REMARK SMILES IDX 14 1 30 2 13 3 31 4 6 5 5 6 27 7 28 8 29 9 15 10 16 11 25 12
REMARK SMILES IDX 17 13 22 14 19 15 21 16 26 17 18 19 23 21 24 22 20 24 32 26
REMARK SMILES IDX 7 28 9 29 11 30 12 31 10 33 8 35 4 37 2 38 1 40 3 41
REMARK H PARENT 26 18 18 20 24 23 20 25 32 27 12 32 10 34 8 36 4 39
ROOT
ATOM      1  C   UNL     1      56.762  32.648  90.247  1.00  0.00     0.213 C 
ATOM      2  C   UNL     1      55.339  32.071  90.160  1.00  0.00     0.106 C 
ATOM      3  O   UNL     1      57.799  31.655  90.373  1.00  0.00    -0.336 OA
ATOM      4  C   UNL     1      55.098  30.943  91.146  1.00  0.00     0.145 C 
ATOM      5  C   UNL     1      57.577  30.429  91.076  1.00  0.00     0.178 C 
ATOM      6  C   UNL     1      56.153  29.855  90.929  1.00  0.00     0.142 C 
ENDROOT
BRANCH   1   7
ATOM      7  C   UNL     1      57.013  33.429  88.824  1.00  0.00     0.101 C 
ATOM      8  O   UNL     1      58.181  33.346  88.341  1.00  0.00    -0.544 OA
ATOM      9  O   UNL     1      55.983  33.968  88.306  1.00  0.00    -0.544 OA
ENDBRANCH   1   7
BRANCH   1  10
ATOM     10  O   UNL     1      56.746  33.561  91.400  1.00  0.00    -0.336 OA
BRANCH  10  11
ATOM     11  C   UNL     1      57.289  34.870  91.149  1.00  0.00     0.187 C 
ATOM     12  C   UNL     1      56.412  35.975  91.774  1.00  0.00     0.177 C 
ATOM     13  C   UNL     1      58.768  34.961  91.547  1.00  0.00     0.202 C 
ATOM     14  C   UNL     1      56.734  36.291  93.230  1.00  0.00     0.178 C 
ATOM     15  C   UNL     1      58.991  35.464  92.989  1.00  0.00     0.279 C 
ATOM     16  O   UNL     1      58.136  36.522  93.405  1.00  0.00    -0.342 OA
BRANCH  12  17
ATOM     17  O   UNL     1      55.015  35.700  91.596  1.00  0.00    -0.387 OA
ATOM     18  H   UNL     1      54.705  36.302  90.892  1.00  0.00     0.211 HD
ENDBRANCH  12  17
BRANCH  13  19
ATOM     19  O   UNL     1      59.425  35.811  90.590  1.00  0.00    -0.385 OA
ATOM     20  H   UNL     1      58.785  35.826  89.829  1.00  0.00     0.211 HD
ENDBRANCH  13  19
BRANCH  14  21
ATOM     21  C   UNL     1      56.141  35.296  94.236  1.00  0.00     0.191 C 
BRANCH  21  22
ATOM     22  O   UNL     1      56.106  33.982  93.674  1.00  0.00    -0.394 OA
ATOM     23  H   UNL     1      57.012  33.847  93.322  1.00  0.00     0.210 HD
ENDBRANCH  21  22
ENDBRANCH  14  21
BRANCH  15  24
ATOM     24  O   UNL     1      58.955  34.432  93.967  1.00  0.00    -0.366 OA
ATOM     25  H   UNL     1      58.157  33.884  93.803  1.00  0.00     0.213 HD
ENDBRANCH  15  24
ENDBRANCH  10  11
ENDBRANCH   1  10
BRANCH   4  26
ATOM     26  O   UNL     1      55.131  31.421  92.496  1.00  0.00    -0.391 OA
ATOM     27  H   UNL     1      54.209  31.639  92.735  1.00  0.00     0.211 HD
ENDBRANCH   4  26
BRANCH   5  28
ATOM     28  C   UNL     1      58.077  30.468  92.549  1.00  0.00     0.176 C 
BRANCH  28  29
ATOM     29  C   UNL     1      59.402  29.688  92.720  1.00  0.00     0.171 C 
BRANCH  29  30
ATOM     30  C   UNL     1      60.483  30.490  93.464  1.00  0.00     0.190 C 
BRANCH  30  31
ATOM     31  O   UNL     1      60.128  30.603  94.849  1.00  0.00    -0.394 OA
ATOM     32  H   UNL     1      59.154  30.673  94.864  1.00  0.00     0.210 HD
ENDBRANCH  30  31
ENDBRANCH  29  30
BRANCH  29  33
ATOM     33  O   UNL     1      59.154  28.498  93.494  1.00  0.00    -0.388 OA
ATOM     34  H   UNL     1      60.008  28.285  93.920  1.00  0.00     0.211 HD
ENDBRANCH  29  33
ENDBRANCH  28  29
BRANCH  28  35
ATOM     35  O   UNL     1      58.246  31.799  93.036  1.00  0.00    -0.388 OA
ATOM     36  H   UNL     1      58.212  31.731  94.018  1.00  0.00     0.211 HD
ENDBRANCH  28  35
ENDBRANCH   5  28
BRANCH   6  37
ATOM     37  N   UNL     1      56.007  29.234  89.600  1.00  0.00    -0.348 N 
ATOM     38  C   UNL     1      55.193  28.150  89.384  1.00  0.00     0.217 C 
ATOM     39  H   UNL     1      56.294  29.793  88.802  1.00  0.00     0.163 HD
ATOM     40  C   UNL     1      55.072  27.750  87.938  1.00  0.00     0.114 C 
ATOM     41  O   UNL     1      54.599  27.556  90.278  1.00  0.00    -0.275 OA
ENDBRANCH   6  37
TORSDOF 16
ENDMDL
MODEL 2
REMARK VINA RESULT:    -6.815     16.291     19.383
REMARK INTER + INTRA:         -14.129
REMARK INTER:                 -11.151
REMARK INTRA:                  -2.979
REMARK UNBOUND:                -2.534
REMARK SMILES CC(=O)N[C@H]1[C@H]([C@H](O)[C@H](O)CO)O[C@@](O[C@@H]2[C@@H](O)[C@H](O)O[C@H](CO)[C@@H]2O)(C(=O)[O-])C[C@@H]1O
REMARK SMILES IDX 14 1 30 2 13 3 31 4 6 5 5 6 27 7 28 8 29 9 15 10 16 11 25 12
REMARK SMILES IDX 17 13 22 14 19 15 21 16 26 17 18 19 23 21 24 22 20 24 32 26
REMARK SMILES IDX 7 28 9 29 11 30 12 31 10 33 8 35 4 37 2 38 1 40 3 41
REMARK H PARENT 26 18 18 20 24 23 20 25 32 27 12 32 10 34 8 36 4 39
ROOT
ATOM      1  C   UNL     1      75.243  38.789  93.843  1.00  0.00     0.213 C 
ATOM      2  C   UNL     1      75.319  40.320  93.952  1.00  0.00     0.106 C 
ATOM      3  O   UNL     1      73.935  38.281  93.514  1.00  0.00    -0.336 OA
ATOM      4  C   UNL     1      74.140  40.919  94.697  1.00  0.00     0.145 C 
ATOM      5  C   UNL     1      72.745  38.935  93.964  1.00  0.00     0.178 C 
ATOM      6  C   UNL     1      72.842  40.474  94.018  1.00  0.00     0.142 C 
ENDROOT
BRANCH   1   7
ATOM      7  C   UNL     1      76.243  38.381  92.605  1.00  0.00     0.101 C 
ATOM      8  O   UNL     1      75.854  37.431  91.863  1.00  0.00    -0.544 OA
ATOM      9  O   UNL     1      77.270  39.119  92.465  1.00  0.00    -0.544 OA
ENDBRANCH   1   7
BRANCH   1  10
ATOM     10  O   UNL     1      75.710  38.278  95.141  1.00  0.00    -0.336 OA
BRANCH  10  11
ATOM     11  C   UNL     1      76.641  37.183  95.066  1.00  0.00     0.187 C 
ATOM     12  C   UNL     1      77.790  37.348  96.083  1.00  0.00     0.177 C 
ATOM     13  C   UNL     1      75.934  35.825  95.154  1.00  0.00     0.202 C 
ATOM     14  C   UNL     1      77.490  36.795  97.471  1.00  0.00     0.178 C 
ATOM     15  C   UNL     1      75.841  35.267  96.590  1.00  0.00     0.279 C 
ATOM     16  O   UNL     1      77.000  35.453  97.393  1.00  0.00    -0.342 OA
BRANCH  12  17
ATOM     17  O   UNL     1      78.241  38.708  96.149  1.00  0.00    -0.387 OA
ATOM     18  H   UNL     1      78.885  38.749  96.883  1.00  0.00     0.211 HD
ENDBRANCH  12  17
BRANCH  13  19
ATOM     19  O   UNL     1      76.630  34.914  94.284  1.00  0.00    -0.385 OA
ATOM     20  H   UNL     1      77.425  34.657  94.822  1.00  0.00     0.211 HD
ENDBRANCH  13  19
BRANCH  14  21
ATOM     21  C   UNL     1      76.629  37.718  98.343  1.00  0.00     0.191 C 
BRANCH  21  22
ATOM     22  O   UNL     1      75.797  38.542  97.524  1.00  0.00    -0.394 OA
ATOM     23  H   UNL     1      74.938  38.068  97.500  1.00  0.00     0.210 HD
ENDBRANCH  21  22
ENDBRANCH  14  21
BRANCH  15  24
ATOM     24  O   UNL     1      74.705  35.727  97.310  1.00  0.00    -0.366 OA
ATOM     25  H   UNL     1      74.796  35.437  98.243  1.00  0.00     0.213 HD
ENDBRANCH  15  24
ENDBRANCH  10  11
ENDBRANCH   1  10
BRANCH   4  26
ATOM     26  O   UNL     1      74.150  40.532  96.076  1.00  0.00    -0.391 OA
ATOM     27  H   UNL     1      73.488  41.094  96.526  1.00  0.00     0.211 HD
ENDBRANCH   4  26
BRANCH   5  28
ATOM     28  C   UNL     1      72.155  38.309  95.261  1.00  0.00     0.176 C 
BRANCH  28  29
ATOM     29  C   UNL     1      71.221  37.117  94.942  1.00  0.00     0.171 C 
BRANCH  29  30
ATOM     30  C   UNL     1      71.899  35.751  95.135  1.00  0.00     0.190 C 
BRANCH  30  31
ATOM     31  O   UNL     1      71.881  35.399  96.526  1.00  0.00    -0.394 OA
ATOM     32  H   UNL     1      72.796  35.130  96.737  1.00  0.00     0.210 HD
ENDBRANCH  30  31
ENDBRANCH  29  30
BRANCH  29  33
ATOM     33  O   UNL     1      70.087  37.154  95.831  1.00  0.00    -0.388 OA
ATOM     34  H   UNL     1      70.448  37.428  96.698  1.00  0.00     0.211 HD
ENDBRANCH  29  33
ENDBRANCH  28  29
BRANCH  28  35
ATOM     35  O   UNL     1      73.165  37.886  96.176  1.00  0.00    -0.388 OA
ATOM     36  H   UNL     1      73.809  38.630  96.226  1.00  0.00     0.211 HD
ENDBRANCH  28  35
ENDBRANCH   5  28
BRANCH   6  37
ATOM     37  N   UNL     1      72.744  41.021  92.653  1.00  0.00    -0.348 N 
ATOM     38  C   UNL     1      72.131  42.220  92.387  1.00  0.00     0.217 C 
ATOM     39  H   UNL     1      73.382  40.637  91.961  1.00  0.00     0.163 HD
ATOM     40  C   UNL     1      72.257  42.671  90.957  1.00  0.00     0.114 C 
ATOM     41  O   UNL     1      71.541  42.885  93.232  1.00  0.00    -0.275 OA
ENDBRANCH   6  37
TORSDOF 16
ENDMDL
MODEL 3
REMARK VINA RESULT:    -6.762     17.375     21.099
REMARK INTER + INTRA:         -14.040
REMARK INTER:                 -11.470
REMARK INTRA:                  -2.570
REMARK UNBOUND:                -2.534
REMARK SMILES CC(=O)N[C@H]1[C@H]([C@H](O)[C@H](O)CO)O[C@@](O[C@@H]2[C@@H](O)[C@H](O)O[C@H](CO)[C@@H]2O)(C(=O)[O-])C[C@@H]1O
REMARK SMILES IDX 14 1 30 2 13 3 31 4 6 5 5 6 27 7 28 8 29 9 15 10 16 11 25 12
REMARK SMILES IDX 17 13 22 14 19 15 21 16 26 17 18 19 23 21 24 22 20 24 32 26
REMARK SMILES IDX 7 28 9 29 11 30 12 31 10 33 8 35 4 37 2 38 1 40 3 41
REMARK H PARENT 26 18 18 20 24 23 20 25 32 27 12 32 10 34 8 36 4 39
ROOT
ATOM      1  C   UNL     1      72.949  20.968  92.039  1.00  0.00     0.213 C 
ATOM      2  C   UNL     1      72.604  20.242  90.729  1.00  0.00     0.106 C 
ATOM      3  O   UNL     1      73.331  22.349  91.870  1.00  0.00    -0.336 OA
ATOM      4  C   UNL     1      73.574  20.556  89.605  1.00  0.00     0.145 C 
ATOM      5  C   UNL     1      74.033  22.791  90.705  1.00  0.00     0.178 C 
ATOM      6  C   UNL     1      73.628  22.072  89.402  1.00  0.00     0.142 C 
ENDROOT
BRANCH   1   7
ATOM      7  C   UNL     1      71.570  20.956  92.931  1.00  0.00     0.101 C 
ATOM      8  O   UNL     1      71.240  22.057  93.464  1.00  0.00    -0.544 OA
ATOM      9  O   UNL     1      70.925  19.860  92.926  1.00  0.00    -0.544 OA
ENDBRANCH   1   7
BRANCH   1  10
ATOM     10  O   UNL     1      74.029  20.181  92.653  1.00  0.00    -0.336 OA
BRANCH  10  11
ATOM     11  C   UNL     1      74.068  20.218  94.091  1.00  0.00     0.187 C 
ATOM     12  C   UNL     1      73.981  18.800  94.694  1.00  0.00     0.177 C 
ATOM     13  C   UNL     1      75.259  21.033  94.610  1.00  0.00     0.202 C 
ATOM     14  C   UNL     1      75.320  18.086  94.831  1.00  0.00     0.178 C 
ATOM     15  C   UNL     1      76.518  20.183  94.887  1.00  0.00     0.279 C 
ATOM     16  O   UNL     1      76.278  18.919  95.493  1.00  0.00    -0.342 OA
BRANCH  12  17
ATOM     17  O   UNL     1      73.026  17.989  93.994  1.00  0.00    -0.387 OA
ATOM     18  H   UNL     1      72.388  17.675  94.665  1.00  0.00     0.211 HD
ENDBRANCH  12  17
BRANCH  13  19
ATOM     19  O   UNL     1      74.828  21.729  95.794  1.00  0.00    -0.385 OA
ATOM     20  H   UNL     1      75.672  21.840  96.306  1.00  0.00     0.211 HD
ENDBRANCH  13  19
BRANCH  14  21
ATOM     21  C   UNL     1      75.838  17.465  93.527  1.00  0.00     0.191 C 
BRANCH  21  22
ATOM     22  O   UNL     1      75.317  16.143  93.365  1.00  0.00    -0.394 OA
ATOM     23  H   UNL     1      75.833  15.772  92.618  1.00  0.00     0.210 HD
ENDBRANCH  21  22
ENDBRANCH  14  21
BRANCH  15  24
ATOM     24  O   UNL     1      77.345  19.998  93.746  1.00  0.00    -0.366 OA
ATOM     25  H   UNL     1      76.990  19.240  93.232  1.00  0.00     0.213 HD
ENDBRANCH  15  24
ENDBRANCH  10  11
ENDBRANCH   1  10
BRANCH   4  26
ATOM     26  O   UNL     1      74.878  20.034  89.887  1.00  0.00    -0.391 OA
ATOM     27  H   UNL     1      74.904  19.859  90.849  1.00  0.00     0.211 HD
ENDBRANCH   4  26
BRANCH   5  28
ATOM     28  C   UNL     1      75.573  22.873  90.912  1.00  0.00     0.176 C 
BRANCH  28  29
ATOM     29  C   UNL     1      75.974  24.141  91.703  1.00  0.00     0.171 C 
BRANCH  29  30
ATOM     30  C   UNL     1      76.474  25.281  90.802  1.00  0.00     0.190 C 
BRANCH  30  31
ATOM     31  O   UNL     1      77.710  24.898  90.184  1.00  0.00    -0.394 OA
ATOM     32  H   UNL     1      77.706  23.922  90.179  1.00  0.00     0.210 HD
ENDBRANCH  30  31
ENDBRANCH  29  30
BRANCH  29  33
ATOM     33  O   UNL     1      74.823  24.639  92.413  1.00  0.00    -0.388 OA
ATOM     34  H   UNL     1      74.594  23.937  93.056  1.00  0.00     0.211 HD
ENDBRANCH  29  33
ENDBRANCH  28  29
BRANCH  28  35
ATOM     35  O   UNL     1      76.100  21.720  91.569  1.00  0.00    -0.388 OA
ATOM     36  H   UNL     1      75.622  20.950  91.182  1.00  0.00     0.211 HD
ENDBRANCH  28  35
ENDBRANCH   5  28
BRANCH   6  37
ATOM     37  N   UNL     1      72.330  22.591  88.936  1.00  0.00    -0.348 N 
ATOM     38  C   UNL     1      72.234  23.614  88.026  1.00  0.00     0.217 C 
ATOM     39  H   UNL     1      71.521  21.993  89.082  1.00  0.00     0.163 HD
ATOM     40  C   UNL     1      70.828  23.905  87.573  1.00  0.00     0.114 C 
ATOM     41  O   UNL     1      73.199  24.238  87.599  1.00  0.00    -0.275 OA
ENDBRANCH   6  37
TORSDOF 16
ENDMDL
MODEL 4
REMARK VINA RESULT:    -6.716     15.776     18.064
REMARK INTER + INTRA:         -13.960
REMARK INTER:                 -11.350
REMARK INTRA:                  -2.610
REMARK UNBOUND:                -2.534
REMARK SMILES CC(=O)N[C@H]1[C@H]([C@H](O)[C@H](O)CO)O[C@@](O[C@@H]2[C@@H](O)[C@H](O)O[C@H](CO)[C@@H]2O)(C(=O)[O-])C[C@@H]1O
REMARK SMILES IDX 14 1 30 2 13 3 31 4 6 5 5 6 27 7 28 8 29 9 15 10 16 11 25 12
REMARK SMILES IDX 17 13 22 14 19 15 21 16 26 17 18 19 23 21 24 22 20 24 32 26
REMARK SMILES IDX 7 28 9 29 11 30 12 31 10 33 8 35 4 37 2 38 1 40 3 41
REMARK H PARENT 26 18 18 20 24 23 20 25 32 27 12 32 10 34 8 36 4 39
ROOT
ATOM      1  C   UNL     1      68.924  27.789  81.541  1.00  0.00     0.213 C 
ATOM      2  C   UNL     1      67.996  27.662  80.321  1.00  0.00     0.106 C 
ATOM      3  O   UNL     1      70.067  28.642  81.331  1.00  0.00    -0.336 OA
ATOM      4  C   UNL     1      68.754  27.491  79.017  1.00  0.00     0.145 C 
ATOM      5  C   UNL     1      70.699  28.742  80.052  1.00  0.00     0.178 C 
ATOM      6  C   UNL     1      69.733  28.657  78.852  1.00  0.00     0.142 C 
ENDROOT
BRANCH   1   7
ATOM      7  C   UNL     1      68.016  28.484  82.720  1.00  0.00     0.101 C 
ATOM      8  O   UNL     1      68.580  29.394  83.396  1.00  0.00    -0.544 OA
ATOM      9  O   UNL     1      66.805  28.095  82.779  1.00  0.00    -0.544 OA
ENDBRANCH   1   7
BRANCH   1  10
ATOM     10  O   UNL     1      69.329  26.415  81.872  1.00  0.00    -0.336 OA
BRANCH  10  11
ATOM     11  C   UNL     1      69.362  26.111  83.278  1.00  0.00     0.187 C 
ATOM     12  C   UNL     1      68.435  24.927  83.622  1.00  0.00     0.177 C 
ATOM     13  C   UNL     1      70.797  25.936  83.791  1.00  0.00     0.202 C 
ATOM     14  C   UNL     1      69.078  23.554  83.469  1.00  0.00     0.178 C 
ATOM     15  C   UNL     1      71.292  24.475  83.760  1.00  0.00     0.279 C 
ATOM     16  O   UNL     1      70.335  23.498  84.152  1.00  0.00    -0.342 OA
BRANCH  12  17
ATOM     17  O   UNL     1      67.195  25.006  82.905  1.00  0.00    -0.387 OA
ATOM     18  H   UNL     1      66.512  24.631  83.496  1.00  0.00     0.211 HD
ENDBRANCH  12  17
BRANCH  13  19
ATOM     19  O   UNL     1      70.852  26.478  85.123  1.00  0.00    -0.385 OA
ATOM     20  H   UNL     1      70.536  27.412  84.996  1.00  0.00     0.211 HD
ENDBRANCH  13  19
BRANCH  14  21
ATOM     21  C   UNL     1      69.138  23.045  82.023  1.00  0.00     0.191 C 
BRANCH  21  22
ATOM     22  O   UNL     1      67.948  22.321  81.701  1.00  0.00    -0.394 OA
ATOM     23  H   UNL     1      68.269  21.543  81.197  1.00  0.00     0.210 HD
ENDBRANCH  21  22
ENDBRANCH  14  21
BRANCH  15  24
ATOM     24  O   UNL     1      71.858  24.089  82.515  1.00  0.00    -0.366 OA
ATOM     25  H   UNL     1      72.576  24.722  82.296  1.00  0.00     0.213 HD
ENDBRANCH  15  24
ENDBRANCH  10  11
ENDBRANCH   1  10
BRANCH   4  26
ATOM     26  O   UNL     1      69.446  26.238  78.983  1.00  0.00    -0.391 OA
ATOM     27  H   UNL     1      69.287  25.858  78.096  1.00  0.00     0.211 HD
ENDBRANCH   4  26
BRANCH   5  28
ATOM     28  C   UNL     1      71.943  27.818  79.909  1.00  0.00     0.176 C 
BRANCH  28  29
ATOM     29  C   UNL     1      73.198  28.452  80.553  1.00  0.00     0.171 C 
BRANCH  29  30
ATOM     30  C   UNL     1      73.289  29.971  80.333  1.00  0.00     0.190 C 
BRANCH  30  31
ATOM     31  O   UNL     1      74.662  30.381  80.373  1.00  0.00    -0.394 OA
ATOM     32  H   UNL     1      75.181  29.554  80.362  1.00  0.00     0.210 HD
ENDBRANCH  30  31
ENDBRANCH  29  30
BRANCH  29  33
ATOM     33  O   UNL     1      73.160  28.234  81.977  1.00  0.00    -0.388 OA
ATOM     34  H   UNL     1      72.224  28.359  82.232  1.00  0.00     0.211 HD
ENDBRANCH  29  33
ENDBRANCH  28  29
BRANCH  28  35
ATOM     35  O   UNL     1      71.730  26.521  80.465  1.00  0.00    -0.388 OA
ATOM     36  H   UNL     1      70.759  26.364  80.413  1.00  0.00     0.211 HD
ENDBRANCH  28  35
ENDBRANCH   5  28
BRANCH   6  37
ATOM     37  N   UNL     1      69.015  29.935  78.706  1.00  0.00    -0.348 N 
ATOM     38  C   UNL     1      69.508  30.971  77.953  1.00  0.00     0.217 C 
ATOM     39  H   UNL     1      68.024  29.930  78.937  1.00  0.00     0.163 HD
ATOM     40  C   UNL     1      68.565  32.136  77.816  1.00  0.00     0.114 C 
ATOM     41  O   UNL     1      70.613  30.960  77.421  1.00  0.00    -0.275 OA
ENDBRANCH   6  37
TORSDOF 16
ENDMDL
MODEL 5
REMARK VINA RESULT:    -6.612     16.628     20.581
REMARK INTER + INTRA:         -13.785
REMARK INTER:                 -11.392
REMARK INTRA:                  -2.392
REMARK UNBOUND:                -2.534
REMARK SMILES CC(=O)N[C@H]1[C@H]([C@H](O)[C@H](O)CO)O[C@@](O[C@@H]2[C@@H](O)[C@H](O)O[C@H](CO)[C@@H]2O)(C(=O)[O-])C[C@@H]1O
REMARK SMILES IDX 14 1 30 2 13 3 31 4 6 5 5 6 27 7 28 8 29 9 15 10 16 11 25 12
REMARK SMILES IDX 17 13 22 14 19 15 21 16 26 17 18 19 23 21 24 22 20 24 32 26
REMARK SMILES IDX 7 28 9 29 11 30 12 31 10 33 8 35 4 37 2 38 1 40 3 41
REMARK H PARENT 26 18 18 20 24 23 20 25 32 27 12 32 10 34 8 36 4 39
ROOT
ATOM      1  C   UNL     1      72.592  21.612  92.916  1.00  0.00     0.213 C 
ATOM      2  C   UNL     1      71.473  20.999  92.059  1.00  0.00     0.106 C 
ATOM      3  O   UNL     1      73.001  22.932  92.502  1.00  0.00    -0.336 OA
ATOM      4  C   UNL     1      71.676  21.223  90.571  1.00  0.00     0.145 C 
ATOM      5  C   UNL     1      72.981  23.322  91.126  1.00  0.00     0.178 C 
ATOM      6  C   UNL     1      71.818  22.724  90.308  1.00  0.00     0.142 C 
ENDROOT
BRANCH   1   7
ATOM      7  C   UNL     1      71.967  21.754  94.428  1.00  0.00     0.101 C 
ATOM      8  O   UNL     1      72.269  22.810  95.060  1.00  0.00    -0.544 OA
ATOM      9  O   UNL     1      71.171  20.826  94.781  1.00  0.00    -0.544 OA
ENDBRANCH   1   7
BRANCH   1  10
ATOM     10  O   UNL     1      73.707  20.656  92.850  1.00  0.00    -0.336 OA
BRANCH  10  11
ATOM     11  C   UNL     1      74.368  20.404  94.103  1.00  0.00     0.187 C 
ATOM     12  C   UNL     1      74.521  18.891  94.366  1.00  0.00     0.177 C 
ATOM     13  C   UNL     1      75.684  21.183  94.222  1.00  0.00     0.202 C 
ATOM     14  C   UNL     1      75.772  18.266  93.758  1.00  0.00     0.178 C 
ATOM     15  C   UNL     1      76.919  20.391  93.744  1.00  0.00     0.279 C 
ATOM     16  O   UNL     1      76.940  19.016  94.107  1.00  0.00    -0.342 OA
BRANCH  12  17
ATOM     17  O   UNL     1      73.340  18.170  93.987  1.00  0.00    -0.387 OA
ATOM     18  H   UNL     1      73.629  17.260  93.776  1.00  0.00     0.211 HD
ENDBRANCH  12  17
BRANCH  13  19
ATOM     19  O   UNL     1      75.825  21.592  95.595  1.00  0.00    -0.385 OA
ATOM     20  H   UNL     1      76.794  21.802  95.666  1.00  0.00     0.211 HD
ENDBRANCH  13  19
BRANCH  14  21
ATOM     21  C   UNL     1      75.657  17.961  92.259  1.00  0.00     0.191 C 
BRANCH  21  22
ATOM     22  O   UNL     1      76.936  17.612  91.724  1.00  0.00    -0.394 OA
ATOM     23  H   UNL     1      76.751  17.390  90.786  1.00  0.00     0.210 HD
ENDBRANCH  21  22
ENDBRANCH  14  21
BRANCH  15  24
ATOM     24  O   UNL     1      77.164  20.502  92.348  1.00  0.00    -0.366 OA
ATOM     25  H   UNL     1      76.404  20.103  91.872  1.00  0.00     0.213 HD
ENDBRANCH  15  24
ENDBRANCH  10  11
ENDBRANCH   1  10
BRANCH   4  26
ATOM     26  O   UNL     1      72.825  20.512  90.095  1.00  0.00    -0.391 OA
ATOM     27  H   UNL     1      73.570  20.771  90.672  1.00  0.00     0.211 HD
ENDBRANCH   4  26
BRANCH   5  28
ATOM     28  C   UNL     1      74.364  23.179  90.429  1.00  0.00     0.176 C 
BRANCH  28  29
ATOM     29  C   UNL     1      75.183  24.488  90.515  1.00  0.00     0.171 C 
BRANCH  29  30
ATOM     30  C   UNL     1      76.586  24.285  91.110  1.00  0.00     0.190 C 
BRANCH  30  31
ATOM     31  O   UNL     1      77.566  24.867  90.239  1.00  0.00    -0.394 OA
ATOM     32  H   UNL     1      78.410  24.439  90.474  1.00  0.00     0.210 HD
ENDBRANCH  30  31
ENDBRANCH  29  30
BRANCH  29  33
ATOM     33  O   UNL     1      75.362  25.022  89.188  1.00  0.00    -0.388 OA
ATOM     34  H   UNL     1      74.863  25.864  89.180  1.00  0.00     0.211 HD
ENDBRANCH  29  33
ENDBRANCH  28  29
BRANCH  28  35
ATOM     35  O   UNL     1      75.138  22.102  90.959  1.00  0.00    -0.388 OA
ATOM     36  H   UNL     1      75.177  22.255  91.932  1.00  0.00     0.211 HD
ENDBRANCH  28  35
ENDBRANCH   5  28
BRANCH   6  37
ATOM     37  N   UNL     1      70.571  23.439  90.630  1.00  0.00    -0.348 N 
ATOM     38  C   UNL     1      69.540  23.554  89.731  1.00  0.00     0.217 C 
ATOM     39  H   UNL     1      70.376  23.595  91.616  1.00  0.00     0.163 HD
ATOM     40  C   UNL     1      68.301  24.197  90.295  1.00  0.00     0.114 C 
ATOM     41  O   UNL     1      69.601  23.162  88.571  1.00  0.00    -0.275 OA
ENDBRANCH   6  37
TORSDOF 16
ENDMDL
MODEL 6
REMARK VINA RESULT:    -6.543      3.653      6.676
REMARK INTER + INTRA:         -13.667
REMARK INTER:                 -10.901
REMARK INTRA:                  -2.766
REMARK UNBOUND:                -2.534
REMARK SMILES CC(=O)N[C@H]1[C@H]([C@H](O)[C@H](O)CO)O[C@@](O[C@@H]2[C@@H](O)[C@H](O)O[C@H](CO)[C@@H]2O)(C(=O)[O-])C[C@@H]1O
REMARK SMILES IDX 14 1 30 2 13 3 31 4 6 5 5 6 27 7 28 8 29 9 15 10 16 11 25 12
REMARK SMILES IDX 17 13 22 14 19 15 21 16 26 17 18 19 23 21 24 22 20 24 32 26
REMARK SMILES IDX 7 28 9 29 11 30 12 31 10 33 8 35 4 37 2 38 1 40 3 41
REMARK H PARENT 26 18 18 20 24 23 20 25 32 27 12 32 10 34 8 36 4 39
ROOT
ATOM      1  C   UNL     1      57.484  31.100  88.583  1.00  0.00     0.213 C 
ATOM      2  C   UNL     1      57.545  31.893  87.267  1.00  0.00     0.106 C 
ATOM      3  O   UNL     1      58.589  30.196  88.782  1.00  0.00    -0.336 OA
ATOM      4  C   UNL     1      57.962  31.042  86.082  1.00  0.00     0.145 C 
ATOM      5  C   UNL     1      59.221  29.535  87.682  1.00  0.00     0.178 C 
ATOM      6  C   UNL     1      59.305  30.378  86.392  1.00  0.00     0.142 C 
ENDROOT
BRANCH   1   7
ATOM      7  C   UNL     1      57.557  32.220  89.782  1.00  0.00     0.101 C 
ATOM      8  O   UNL     1      58.360  31.972  90.730  1.00  0.00    -0.544 OA
ATOM      9  O   UNL     1      56.861  33.269  89.594  1.00  0.00    -0.544 OA
ENDBRANCH   1   7
BRANCH   1  10
ATOM     10  O   UNL     1      56.200  30.385  88.553  1.00  0.00    -0.336 OA
BRANCH  10  11
ATOM     11  C   UNL     1      55.523  30.293  89.819  1.00  0.00     0.187 C 
ATOM     12  C   UNL     1      54.093  30.868  89.737  1.00  0.00     0.177 C 
ATOM     13  C   UNL     1      55.582  28.873  90.397  1.00  0.00     0.202 C 
ATOM     14  C   UNL     1      53.036  29.872  89.276  1.00  0.00     0.178 C 
ATOM     15  C   UNL     1      54.370  27.998  90.014  1.00  0.00     0.279 C 
ATOM     16  O   UNL     1      53.110  28.659  90.033  1.00  0.00    -0.342 OA
BRANCH  12  17
ATOM     17  O   UNL     1      54.054  32.070  88.956  1.00  0.00    -0.387 OA
ATOM     18  H   UNL     1      53.623  32.747  89.515  1.00  0.00     0.211 HD
ENDBRANCH  12  17
BRANCH  13  19
ATOM     19  O   UNL     1      55.712  28.990  91.825  1.00  0.00    -0.385 OA
ATOM     20  H   UNL     1      56.337  28.251  92.053  1.00  0.00     0.211 HD
ENDBRANCH  13  19
BRANCH  14  21
ATOM     21  C   UNL     1      52.999  29.652  87.758  1.00  0.00     0.191 C 
BRANCH  21  22
ATOM     22  O   UNL     1      52.158  30.625  87.135  1.00  0.00    -0.394 OA
ATOM     23  H   UNL     1      51.391  30.107  86.810  1.00  0.00     0.210 HD
ENDBRANCH  21  22
ENDBRANCH  14  21
BRANCH  15  24
ATOM     24  O   UNL     1      54.518  27.327  88.770  1.00  0.00    -0.366 OA
ATOM     25  H   UNL     1      53.832  27.668  88.156  1.00  0.00     0.213 HD
ENDBRANCH  15  24
ENDBRANCH  10  11
ENDBRANCH   1  10
BRANCH   4  26
ATOM     26  O   UNL     1      56.966  30.058  85.778  1.00  0.00    -0.391 OA
ATOM     27  H   UNL     1      56.190  30.269  86.333  1.00  0.00     0.211 HD
ENDBRANCH   4  26
BRANCH   5  28
ATOM     28  C   UNL     1      58.686  28.094  87.444  1.00  0.00     0.176 C 
BRANCH  28  29
ATOM     29  C   UNL     1      59.336  27.079  88.413  1.00  0.00     0.171 C 
BRANCH  29  30
ATOM     30  C   UNL     1      59.946  25.864  87.695  1.00  0.00     0.190 C 
BRANCH  30  31
ATOM     31  O   UNL     1      58.989  25.320  86.776  1.00  0.00    -0.394 OA
ATOM     32  H   UNL     1      58.151  25.780  86.970  1.00  0.00     0.210 HD
ENDBRANCH  30  31
ENDBRANCH  29  30
BRANCH  29  33
ATOM     33  O   UNL     1      60.406  27.726  89.129  1.00  0.00    -0.388 OA
ATOM     34  H   UNL     1      60.919  27.000  89.537  1.00  0.00     0.211 HD
ENDBRANCH  29  33
ENDBRANCH  28  29
BRANCH  28  35
ATOM     35  O   UNL     1      57.265  28.010  87.555  1.00  0.00    -0.388 OA
ATOM     36  H   UNL     1      57.002  27.223  87.023  1.00  0.00     0.211 HD
ENDBRANCH  28  35
ENDBRANCH   5  28
BRANCH   6  37
ATOM     37  N   UNL     1      60.374  31.383  86.530  1.00  0.00    -0.348 N 
ATOM     38  C   UNL     1      61.233  31.683  85.502  1.00  0.00     0.217 C 
ATOM     39  H   UNL     1      60.281  32.045  87.295  1.00  0.00     0.163 HD
ATOM     40  C   UNL     1      62.162  32.832  85.792  1.00  0.00     0.114 C 
ATOM     41  O   UNL     1      61.247  31.088  84.430  1.00  0.00    -0.275 OA
ENDBRANCH   6  37
TORSDOF 16
ENDMDL
MODEL 7
REMARK VINA RESULT:    -6.519     16.767     18.901
REMARK INTER + INTRA:         -13.626
REMARK INTER:                 -11.157
REMARK INTRA:                  -2.469
REMARK UNBOUND:                -2.534
REMARK SMILES CC(=O)N[C@H]1[C@H]([C@H](O)[C@H](O)CO)O[C@@](O[C@@H]2[C@@H](O)[C@H](O)O[C@H](CO)[C@@H]2O)(C(=O)[O-])C[C@@H]1O
REMARK SMILES IDX 14 1 30 2 13 3 31 4 6 5 5 6 27 7 28 8 29 9 15 10 16 11 25 12
REMARK SMILES IDX 17 13 22 14 19 15 21 16 26 17 18 19 23 21 24 22 20 24 32 26
REMARK SMILES IDX 7 28 9 29 11 30 12 31 10 33 8 35 4 37 2 38 1 40 3 41
REMARK H PARENT 26 18 18 20 24 23 20 25 32 27 12 32 10 34 8 36 4 39
ROOT
ATOM      1  C   UNL     1      72.515  30.786  82.134  1.00  0.00     0.213 C 
ATOM      2  C   UNL     1      73.456  29.825  81.389  1.00  0.00     0.106 C 
ATOM      3  O   UNL     1      71.426  31.289  81.334  1.00  0.00    -0.336 OA
ATOM      4  C   UNL     1      73.791  30.295  79.985  1.00  0.00     0.145 C 
ATOM      5  C   UNL     1      71.576  31.523  79.931  1.00  0.00     0.178 C 
ATOM      6  C   UNL     1      72.491  30.513  79.208  1.00  0.00     0.142 C 
ENDROOT
BRANCH   1   7
ATOM      7  C   UNL     1      71.851  29.904  83.350  1.00  0.00     0.101 C 
ATOM      8  O   UNL     1      72.638  29.134  83.977  1.00  0.00    -0.544 OA
ATOM      9  O   UNL     1      70.627  30.148  83.598  1.00  0.00    -0.544 OA
ENDBRANCH   1   7
BRANCH   1  10
ATOM     10  O   UNL     1      73.372  31.875  82.625  1.00  0.00    -0.336 OA
BRANCH  10  11
ATOM     11  C   UNL     1      73.135  32.270  83.988  1.00  0.00     0.187 C 
ATOM     12  C   UNL     1      74.427  32.198  84.830  1.00  0.00     0.177 C 
ATOM     13  C   UNL     1      72.421  33.624  84.075  1.00  0.00     0.202 C 
ATOM     14  C   UNL     1      75.287  33.455  84.778  1.00  0.00     0.178 C 
ATOM     15  C   UNL     1      73.383  34.825  84.200  1.00  0.00     0.279 C 
ATOM     16  O   UNL     1      74.504  34.622  85.052  1.00  0.00    -0.342 OA
BRANCH  12  17
ATOM     17  O   UNL     1      75.194  31.027  84.515  1.00  0.00    -0.387 OA
ATOM     18  H   UNL     1      75.606  30.735  85.352  1.00  0.00     0.211 HD
ENDBRANCH  12  17
BRANCH  13  19
ATOM     19  O   UNL     1      71.511  33.566  85.188  1.00  0.00    -0.385 OA
ATOM     20  H   UNL     1      71.888  32.834  85.745  1.00  0.00     0.211 HD
ENDBRANCH  13  19
BRANCH  14  21
ATOM     21  C   UNL     1      76.153  33.574  83.518  1.00  0.00     0.191 C 
BRANCH  21  22
ATOM     22  O   UNL     1      77.441  32.996  83.743  1.00  0.00    -0.394 OA
ATOM     23  H   UNL     1      78.070  33.696  83.466  1.00  0.00     0.210 HD
ENDBRANCH  21  22
ENDBRANCH  14  21
BRANCH  15  24
ATOM     24  O   UNL     1      73.840  35.324  82.950  1.00  0.00    -0.366 OA
ATOM     25  H   UNL     1      74.291  36.181  83.110  1.00  0.00     0.213 HD
ENDBRANCH  15  24
ENDBRANCH  10  11
ENDBRANCH   1  10
BRANCH   4  26
ATOM     26  O   UNL     1      74.572  31.495  80.016  1.00  0.00    -0.391 OA
ATOM     27  H   UNL     1      74.894  31.640  79.104  1.00  0.00     0.211 HD
ENDBRANCH   4  26
BRANCH   5  28
ATOM     28  C   UNL     1      71.903  33.006  79.589  1.00  0.00     0.176 C 
BRANCH  28  29
ATOM     29  C   UNL     1      70.628  33.883  79.589  1.00  0.00     0.171 C 
BRANCH  29  30
ATOM     30  C   UNL     1      69.381  33.135  79.091  1.00  0.00     0.190 C 
BRANCH  30  31
ATOM     31  O   UNL     1      68.271  34.041  79.030  1.00  0.00    -0.394 OA
ATOM     32  H   UNL     1      67.537  33.585  79.485  1.00  0.00     0.210 HD
ENDBRANCH  30  31
ENDBRANCH  29  30
BRANCH  29  33
ATOM     33  O   UNL     1      70.351  34.315  80.936  1.00  0.00    -0.388 OA
ATOM     34  H   UNL     1      70.833  35.160  81.039  1.00  0.00     0.211 HD
ENDBRANCH  29  33
ENDBRANCH  28  29
BRANCH  28  35
ATOM     35  O   UNL     1      72.868  33.574  80.475  1.00  0.00    -0.388 OA
ATOM     36  H   UNL     1      72.360  34.163  81.081  1.00  0.00     0.211 HD
ENDBRANCH  28  35
ENDBRANCH   5  28
BRANCH   6  37
ATOM     37  N   UNL     1      71.768  29.243  79.018  1.00  0.00    -0.348 N 
ATOM     38  C   UNL     1      71.017  28.988  77.898  1.00  0.00     0.217 C 
ATOM     39  H   UNL     1      72.065  28.459  79.593  1.00  0.00     0.163 HD
ATOM     40  C   UNL     1      70.473  27.587  77.827  1.00  0.00     0.114 C 
ATOM     41  O   UNL     1      70.809  29.814  77.015  1.00  0.00    -0.275 OA
ENDBRANCH   6  37
TORSDOF 16
ENDMDL
MODEL 8
REMARK VINA RESULT:    -6.485     16.315     20.354
REMARK INTER + INTRA:         -13.568
REMARK INTER:                 -11.765
REMARK INTRA:                  -1.803
REMARK UNBOUND:                -2.534
REMARK SMILES CC(=O)N[C@H]1[C@H]([C@H](O)[C@H](O)CO)O[C@@](O[C@@H]2[C@@H](O)[C@H](O)O[C@H](CO)[C@@H]2O)(C(=O)[O-])C[C@@H]1O
REMARK SMILES IDX 14 1 30 2 13 3 31 4 6 5 5 6 27 7 28 8 29 9 15 10 16 11 25 12
REMARK SMILES IDX 17 13 22 14 19 15 21 16 26 17 18 19 23 21 24 22 20 24 32 26
REMARK SMILES IDX 7 28 9 29 11 30 12 31 10 33 8 35 4 37 2 38 1 40 3 41
REMARK H PARENT 26 18 18 20 24 23 20 25 32 27 12 32 10 34 8 36 4 39
ROOT
ATOM      1  C   UNL     1      72.566  21.056  92.257  1.00  0.00     0.213 C 
ATOM      2  C   UNL     1      72.122  21.679  93.590  1.00  0.00     0.106 C 
ATOM      3  O   UNL     1      71.482  20.578  91.434  1.00  0.00    -0.336 OA
ATOM      4  C   UNL     1      71.031  20.881  94.281  1.00  0.00     0.145 C 
ATOM      5  C   UNL     1      70.290  20.038  92.010  1.00  0.00     0.178 C 
ATOM      6  C   UNL     1      69.849  20.718  93.323  1.00  0.00     0.142 C 
ENDROOT
BRANCH   1   7
ATOM      7  C   UNL     1      73.305  22.265  91.425  1.00  0.00     0.101 C 
ATOM      8  O   UNL     1      73.134  23.437  91.874  1.00  0.00    -0.544 OA
ATOM      9  O   UNL     1      74.047  21.892  90.461  1.00  0.00    -0.544 OA
ENDBRANCH   1   7
BRANCH   1  10
ATOM     10  O   UNL     1      73.489  19.970  92.618  1.00  0.00    -0.336 OA
BRANCH  10  11
ATOM     11  C   UNL     1      74.381  20.264  93.708  1.00  0.00     0.187 C 
ATOM     12  C   UNL     1      74.950  18.974  94.336  1.00  0.00     0.177 C 
ATOM     13  C   UNL     1      75.458  21.279  93.307  1.00  0.00     0.202 C 
ATOM     14  C   UNL     1      76.206  18.441  93.657  1.00  0.00     0.178 C 
ATOM     15  C   UNL     1      76.763  20.630  92.799  1.00  0.00     0.279 C 
ATOM     16  O   UNL     1      77.187  19.474  93.512  1.00  0.00    -0.342 OA
BRANCH  12  17
ATOM     17  O   UNL     1      73.945  17.957  94.447  1.00  0.00    -0.387 OA
ATOM     18  H   UNL     1      73.739  17.673  93.535  1.00  0.00     0.211 HD
ENDBRANCH  12  17
BRANCH  13  19
ATOM     19  O   UNL     1      75.705  22.125  94.446  1.00  0.00    -0.385 OA
ATOM     20  H   UNL     1      75.963  21.475  95.153  1.00  0.00     0.211 HD
ENDBRANCH  13  19
BRANCH  14  21
ATOM     21  C   UNL     1      75.939  17.657  92.366  1.00  0.00     0.191 C 
BRANCH  21  22
ATOM     22  O   UNL     1      77.142  17.528  91.604  1.00  0.00    -0.394 OA
ATOM     23  H   UNL     1      77.826  17.305  92.271  1.00  0.00     0.210 HD
ENDBRANCH  21  22
ENDBRANCH  14  21
BRANCH  15  24
ATOM     24  O   UNL     1      76.749  20.333  91.409  1.00  0.00    -0.366 OA
ATOM     25  H   UNL     1      75.841  20.054  91.164  1.00  0.00     0.213 HD
ENDBRANCH  15  24
ENDBRANCH  10  11
ENDBRANCH   1  10
BRANCH   4  26
ATOM     26  O   UNL     1      71.518  19.604  94.710  1.00  0.00    -0.391 OA
ATOM     27  H   UNL     1      71.110  18.940  94.120  1.00  0.00     0.211 HD
ENDBRANCH   4  26
BRANCH   5  28
ATOM     28  C   UNL     1      70.299  18.485  92.092  1.00  0.00     0.176 C 
BRANCH  28  29
ATOM     29  C   UNL     1      69.905  17.842  90.742  1.00  0.00     0.171 C 
BRANCH  29  30
ATOM     30  C   UNL     1      68.522  17.172  90.773  1.00  0.00     0.190 C 
BRANCH  30  31
ATOM     31  O   UNL     1      67.695  17.730  89.743  1.00  0.00    -0.394 OA
ATOM     32  H   UNL     1      68.267  18.358  89.261  1.00  0.00     0.210 HD
ENDBRANCH  30  31
ENDBRANCH  29  30
BRANCH  29  33
ATOM     33  O   UNL     1      69.855  18.865  89.728  1.00  0.00    -0.388 OA
ATOM     34  H   UNL     1      70.684  19.373  89.834  1.00  0.00     0.211 HD
ENDBRANCH  29  33
ENDBRANCH  28  29
BRANCH  28  35
ATOM     35  O   UNL     1      71.560  17.964  92.514  1.00  0.00    -0.388 OA
ATOM     36  H   UNL     1      71.944  18.646  93.112  1.00  0.00     0.211 HD
ENDBRANCH  28  35
ENDBRANCH   5  28
BRANCH   6  37
ATOM     37  N   UNL     1      69.229  22.020  93.019  1.00  0.00    -0.348 N 
ATOM     38  C   UNL     1      68.524  22.732  93.957  1.00  0.00     0.217 C 
ATOM     39  H   UNL     1      69.573  22.508  92.197  1.00  0.00     0.163 HD
ATOM     40  C   UNL     1      68.090  24.097  93.496  1.00  0.00     0.114 C 
ATOM     41  O   UNL     1      68.271  22.313  95.082  1.00  0.00    -0.275 OA
ENDBRANCH   6  37
TORSDOF 16
ENDMDL
MODEL 9
REMARK VINA RESULT:    -6.411     15.308     18.334
REMARK INTER + INTRA:         -13.442
REMARK INTER:                 -10.962
REMARK INTRA:                  -2.480
REMARK UNBOUND:                -2.534
REMARK SMILES CC(=O)N[C@H]1[C@H]([C@H](O)[C@H](O)CO)O[C@@](O[C@@H]2[C@@H](O)[C@H](O)O[C@H](CO)[C@@H]2O)(C(=O)[O-])C[C@@H]1O
REMARK SMILES IDX 14 1 30 2 13 3 31 4 6 5 5 6 27 7 28 8 29 9 15 10 16 11 25 12
REMARK SMILES IDX 17 13 22 14 19 15 21 16 26 17 18 19 23 21 24 22 20 24 32 26
REMARK SMILES IDX 7 28 9 29 11 30 12 31 10 33 8 35 4 37 2 38 1 40 3 41
REMARK H PARENT 26 18 18 20 24 23 20 25 32 27 12 32 10 34 8 36 4 39
ROOT
ATOM      1  C   UNL     1      73.898  39.282  91.774  1.00  0.00     0.213 C 
ATOM      2  C   UNL     1      74.853  38.918  90.626  1.00  0.00     0.106 C 
ATOM      3  O   UNL     1      72.524  38.912  91.542  1.00  0.00    -0.336 OA
ATOM      4  C   UNL     1      74.277  39.228  89.256  1.00  0.00     0.145 C 
ATOM      5  C   UNL     1      71.958  38.928  90.229  1.00  0.00     0.178 C 
ATOM      6  C   UNL     1      72.932  38.513  89.107  1.00  0.00     0.142 C 
ENDROOT
BRANCH   1   7
ATOM      7  C   UNL     1      74.415  38.420  93.073  1.00  0.00     0.101 C 
ATOM      8  O   UNL     1      73.512  37.912  93.802  1.00  0.00    -0.544 OA
ATOM      9  O   UNL     1      75.677  38.279  93.169  1.00  0.00    -0.544 OA
ENDBRANCH   1   7
BRANCH   1  10
ATOM     10  O   UNL     1      74.043  40.733  91.962  1.00  0.00    -0.336 OA
BRANCH  10  11
ATOM     11  C   UNL     1      73.972  41.181  93.327  1.00  0.00     0.187 C 
ATOM     12  C   UNL     1      75.005  42.292  93.610  1.00  0.00     0.177 C 
ATOM     13  C   UNL     1      72.541  41.556  93.732  1.00  0.00     0.202 C 
ATOM     14  C   UNL     1      74.524  43.702  93.286  1.00  0.00     0.178 C 
ATOM     15  C   UNL     1      72.210  43.050  93.529  1.00  0.00     0.279 C 
ATOM     16  O   UNL     1      73.248  43.957  93.883  1.00  0.00    -0.342 OA
BRANCH  12  17
ATOM     17  O   UNL     1      76.263  42.012  92.982  1.00  0.00    -0.387 OA
ATOM     18  H   UNL     1      76.454  41.070  93.158  1.00  0.00     0.211 HD
ENDBRANCH  12  17
BRANCH  13  19
ATOM     19  O   UNL     1      72.359  41.163  95.104  1.00  0.00    -0.385 OA
ATOM     20  H   UNL     1      72.596  41.988  95.605  1.00  0.00     0.211 HD
ENDBRANCH  13  19
BRANCH  14  21
ATOM     21  C   UNL     1      74.593  44.063  91.797  1.00  0.00     0.191 C 
BRANCH  21  22
ATOM     22  O   UNL     1      75.856  44.657  91.487  1.00  0.00    -0.394 OA
ATOM     23  H   UNL     1      76.513  43.987  91.773  1.00  0.00     0.210 HD
ENDBRANCH  21  22
ENDBRANCH  14  21
BRANCH  15  24
ATOM     24  O   UNL     1      71.753  43.363  92.220  1.00  0.00    -0.366 OA
ATOM     25  H   UNL     1      70.892  43.826  92.300  1.00  0.00     0.213 HD
ENDBRANCH  15  24
ENDBRANCH  10  11
ENDBRANCH   1  10
BRANCH   4  26
ATOM     26  O   UNL     1      74.127  40.640  89.067  1.00  0.00    -0.391 OA
ATOM     27  H   UNL     1      73.761  40.993  89.902  1.00  0.00     0.211 HD
ENDBRANCH   4  26
BRANCH   5  28
ATOM     28  C   UNL     1      71.175  40.236  89.915  1.00  0.00     0.176 C 
BRANCH  28  29
ATOM     29  C   UNL     1      69.794  40.253  90.610  1.00  0.00     0.171 C 
BRANCH  29  30
ATOM     30  C   UNL     1      68.619  40.293  89.620  1.00  0.00     0.190 C 
BRANCH  30  31
ATOM     31  O   UNL     1      68.709  41.477  88.816  1.00  0.00    -0.394 OA
ATOM     32  H   UNL     1      69.033  42.175  89.417  1.00  0.00     0.210 HD
ENDBRANCH  30  31
ENDBRANCH  29  30
BRANCH  29  33
ATOM     33  O   UNL     1      69.644  39.052  91.394  1.00  0.00    -0.388 OA
ATOM     34  H   UNL     1      69.601  39.356  92.323  1.00  0.00     0.211 HD
ENDBRANCH  29  33
ENDBRANCH  28  29
BRANCH  28  35
ATOM     35  O   UNL     1      71.901  41.410  90.276  1.00  0.00    -0.388 OA
ATOM     36  H   UNL     1      72.399  41.176  91.094  1.00  0.00     0.211 HD
ENDBRANCH  28  35
ENDBRANCH   5  28
BRANCH   6  37
ATOM     37  N   UNL     1      73.105  37.050  89.121  1.00  0.00    -0.348 N 
ATOM     38  C   UNL     1      73.553  36.355  88.025  1.00  0.00     0.217 C 
ATOM     39  H   UNL     1      73.160  36.606  90.034  1.00  0.00     0.163 HD
ATOM     40  C   UNL     1      73.795  34.892  88.282  1.00  0.00     0.114 C 
ATOM     41  O   UNL     1      73.755  36.868  86.930  1.00  0.00    -0.275 OA
ENDBRANCH   6  37
TORSDOF 16
ENDMDL
