MODEL 1
REMARK VINA RESULT:    -7.481      0.000      0.000
REMARK INTER + INTRA:         -15.017
REMARK INTER:                 -12.729
REMARK INTRA:                  -2.288
REMARK UNBOUND:                -2.288
REMARK SMILES CC(=O)N[C@H]1[C@H]([C@H](O)[C@H](O)CO)O[C@@](O[C@@H]2[C@@H](O)[C@H](O)O[C@H](CO)[C@@H]2O)(C(=O)[O-])C[C@@H]1O
REMARK SMILES IDX 14 1 30 2 13 3 31 4 6 5 5 6 27 7 28 8 29 9 15 10 16 11 25 12
REMARK SMILES IDX 17 13 22 14 19 15 21 16 26 17 18 19 23 21 24 22 20 24 32 26
REMARK SMILES IDX 7 28 9 29 11 30 12 31 10 33 8 35 4 37 2 38 1 40 3 41
REMARK H PARENT 26 18 18 20 24 23 20 25 32 27 12 32 10 34 8 36 4 39
ROOT
ATOM      1  C   UNL     1      37.898  -3.169  69.073  1.00  0.00     0.213 C 
ATOM      2  C   UNL     1      37.069  -4.340  69.624  1.00  0.00     0.106 C 
ATOM      3  O   UNL     1      37.169  -1.930  68.955  1.00  0.00    -0.336 OA
ATOM      4  C   UNL     1      35.677  -4.414  69.024  1.00  0.00     0.145 C 
ATOM      5  C   UNL     1      35.774  -1.912  68.641  1.00  0.00     0.178 C 
ATOM      6  C   UNL     1      34.966  -3.077  69.248  1.00  0.00     0.142 C 
ENDROOT
BRANCH   1   7
ATOM      7  C   UNL     1      39.097  -2.919  70.166  1.00  0.00     0.101 C 
ATOM      8  O   UNL     1      39.682  -3.955  70.600  1.00  0.00    -0.544 OA
ATOM      9  O   UNL     1      39.377  -1.700  70.404  1.00  0.00    -0.544 OA
ENDBRANCH   1   7
BRANCH   1  10
ATOM     10  O   UNL     1      38.404  -3.623  67.769  1.00  0.00    -0.336 OA
BRANCH  10  11
ATOM     11  C   UNL     1      39.708  -3.128  67.415  1.00  0.00     0.187 C 
ATOM     12  C   UNL     1      40.701  -4.283  67.164  1.00  0.00     0.177 C 
ATOM     13  C   UNL     1      39.642  -2.114  66.266  1.00  0.00     0.202 C 
ATOM     14  C   UNL     1      40.692  -4.827  65.740  1.00  0.00     0.178 C 
ATOM     15  C   UNL     1      39.823  -2.747  64.870  1.00  0.00     0.279 C 
ATOM     16  O   UNL     1      40.813  -3.766  64.787  1.00  0.00    -0.342 OA
BRANCH  12  17
ATOM     17  O   UNL     1      40.538  -5.334  68.126  1.00  0.00    -0.387 OA
ATOM     18  H   UNL     1      40.903  -6.142  67.715  1.00  0.00     0.211 HD
ENDBRANCH  12  17
BRANCH  13  19
ATOM     19  O   UNL     1      40.639  -1.107  66.516  1.00  0.00    -0.385 OA
ATOM     20  H   UNL     1      40.110  -0.266  66.517  1.00  0.00     0.211 HD
ENDBRANCH  13  19
BRANCH  14  21
ATOM     21  C   UNL     1      39.540  -5.796  65.445  1.00  0.00     0.191 C 
BRANCH  21  22
ATOM     22  O   UNL     1      39.530  -6.147  64.059  1.00  0.00    -0.394 OA
ATOM     23  H   UNL     1      40.258  -6.799  63.971  1.00  0.00     0.210 HD
ENDBRANCH  21  22
ENDBRANCH  14  21
BRANCH  15  24
ATOM     24  O   UNL     1      38.615  -3.233  64.301  1.00  0.00    -0.366 OA
ATOM     25  H   UNL     1      38.409  -2.688  63.511  1.00  0.00     0.213 HD
ENDBRANCH  15  24
ENDBRANCH  10  11
ENDBRANCH   1  10
BRANCH   4  26
ATOM     26  O   UNL     1      35.732  -4.733  67.629  1.00  0.00    -0.391 OA
ATOM     27  H   UNL     1      35.862  -3.887  67.156  1.00  0.00     0.211 HD
ENDBRANCH   4  26
BRANCH   5  28
ATOM     28  C   UNL     1      35.489  -1.686  67.128  1.00  0.00     0.176 C 
BRANCH  28  29
ATOM     29  C   UNL     1      35.308  -0.185  66.801  1.00  0.00     0.171 C 
BRANCH  29  30
ATOM     30  C   UNL     1      35.356   0.714  68.047  1.00  0.00     0.190 C 
BRANCH  30  31
ATOM     31  O   UNL     1      35.526   2.081  67.646  1.00  0.00    -0.394 OA
ATOM     32  H   UNL     1      35.192   2.614  68.392  1.00  0.00     0.210 HD
ENDBRANCH  30  31
ENDBRANCH  29  30
BRANCH  29  33
ATOM     33  O   UNL     1      36.375   0.242  65.932  1.00  0.00    -0.388 OA
ATOM     34  H   UNL     1      37.095  -0.407  66.070  1.00  0.00     0.211 HD
ENDBRANCH  29  33
ENDBRANCH  28  29
BRANCH  28  35
ATOM     35  O   UNL     1      36.508  -2.232  66.290  1.00  0.00    -0.388 OA
ATOM     36  H   UNL     1      36.425  -3.211  66.372  1.00  0.00     0.211 HD
ENDBRANCH  28  35
ENDBRANCH   5  28
BRANCH   6  37
ATOM     37  N   UNL     1      34.746  -2.828  70.684  1.00  0.00    -0.348 N 
ATOM     38  C   UNL     1      33.655  -2.137  71.149  1.00  0.00     0.217 C 
ATOM     39  H   UNL     1      35.261  -3.417  71.333  1.00  0.00     0.163 HD
ATOM     40  C   UNL     1      33.537  -2.109  72.649  1.00  0.00     0.114 C 
ATOM     41  O   UNL     1      32.831  -1.596  70.420  1.00  0.00    -0.275 OA
ENDBRANCH   6  37
TORSDOF 16
ENDMDL
MODEL 2
REMARK VINA RESULT:    -7.184     69.680     72.362
REMARK INTER + INTRA:         -14.512
REMARK INTER:                 -11.686
REMARK INTRA:                  -2.827
REMARK UNBOUND:                -2.288
REMARK SMILES CC(=O)N[C@H]1[C@H]([C@H](O)[C@H](O)CO)O[C@@](O[C@@H]2[C@@H](O)[C@H](O)O[C@H](CO)[C@@H]2O)(C(=O)[O-])C[C@@H]1O
REMARK SMILES IDX 14 1 30 2 13 3 31 4 6 5 5 6 27 7 28 8 29 9 15 10 16 11 25 12
REMARK SMILES IDX 17 13 22 14 19 15 21 16 26 17 18 19 23 21 24 22 20 24 32 26
REMARK SMILES IDX 7 28 9 29 11 30 12 31 10 33 8 35 4 37 2 38 1 40 3 41
REMARK H PARENT 26 18 18 20 24 23 20 25 32 27 12 32 10 34 8 36 4 39
ROOT
ATOM      1  C   UNL     1      22.085   5.279  -3.075  1.00  0.00     0.213 C 
ATOM      2  C   UNL     1      22.335   6.788  -3.226  1.00  0.00     0.106 C 
ATOM      3  O   UNL     1      21.862   4.847  -1.717  1.00  0.00    -0.336 OA
ATOM      4  C   UNL     1      23.268   7.342  -2.164  1.00  0.00     0.145 C 
ATOM      5  C   UNL     1      22.510   5.486  -0.615  1.00  0.00     0.178 C 
ATOM      6  C   UNL     1      22.704   7.008  -0.780  1.00  0.00     0.142 C 
ENDROOT
BRANCH   1   7
ATOM      7  C   UNL     1      20.705   4.971  -3.910  1.00  0.00     0.101 C 
ATOM      8  O   UNL     1      19.857   4.227  -3.334  1.00  0.00    -0.544 OA
ATOM      9  O   UNL     1      20.588   5.583  -5.020  1.00  0.00    -0.544 OA
ENDBRANCH   1   7
BRANCH   1  10
ATOM     10  O   UNL     1      23.262   4.623  -3.664  1.00  0.00    -0.336 OA
BRANCH  10  11
ATOM     11  C   UNL     1      22.999   3.369  -4.317  1.00  0.00     0.187 C 
ATOM     12  C   UNL     1      23.546   3.358  -5.760  1.00  0.00     0.177 C 
ATOM     13  C   UNL     1      23.467   2.176  -3.474  1.00  0.00     0.202 C 
ATOM     14  C   UNL     1      25.005   2.936  -5.880  1.00  0.00     0.178 C 
ATOM     15  C   UNL     1      24.903   1.713  -3.800  1.00  0.00     0.279 C 
ATOM     16  O   UNL     1      25.243   1.710  -5.181  1.00  0.00    -0.342 OA
BRANCH  12  17
ATOM     17  O   UNL     1      23.306   4.608  -6.421  1.00  0.00    -0.387 OA
ATOM     18  H   UNL     1      22.572   4.451  -7.047  1.00  0.00     0.211 HD
ENDBRANCH  12  17
BRANCH  13  19
ATOM     19  O   UNL     1      22.519   1.110  -3.662  1.00  0.00    -0.385 OA
ATOM     20  H   UNL     1      23.005   0.483  -4.261  1.00  0.00     0.211 HD
ENDBRANCH  13  19
BRANCH  14  21
ATOM     21  C   UNL     1      26.010   4.045  -5.543  1.00  0.00     0.191 C 
BRANCH  21  22
ATOM     22  O   UNL     1      26.007   5.046  -6.563  1.00  0.00    -0.394 OA
ATOM     23  H   UNL     1      25.518   4.632  -7.305  1.00  0.00     0.210 HD
ENDBRANCH  21  22
ENDBRANCH  14  21
BRANCH  15  24
ATOM     24  O   UNL     1      25.908   2.414  -3.080  1.00  0.00    -0.366 OA
ATOM     25  H   UNL     1      26.459   2.907  -3.726  1.00  0.00     0.213 HD
ENDBRANCH  15  24
ENDBRANCH  10  11
ENDBRANCH   1  10
BRANCH   4  26
ATOM     26  O   UNL     1      24.591   6.815  -2.314  1.00  0.00    -0.391 OA
ATOM     27  H   UNL     1      24.588   5.933  -1.893  1.00  0.00     0.211 HD
ENDBRANCH   4  26
BRANCH   5  28
ATOM     28  C   UNL     1      23.798   4.748  -0.149  1.00  0.00     0.176 C 
BRANCH  28  29
ATOM     29  C   UNL     1      23.461   3.479   0.669  1.00  0.00     0.171 C 
BRANCH  29  30
ATOM     30  C   UNL     1      24.702   2.643   1.024  1.00  0.00     0.190 C 
BRANCH  30  31
ATOM     31  O   UNL     1      25.129   1.905  -0.130  1.00  0.00    -0.394 OA
ATOM     32  H   UNL     1      25.404   1.031   0.207  1.00  0.00     0.210 HD
ENDBRANCH  30  31
ENDBRANCH  29  30
BRANCH  29  33
ATOM     33  O   UNL     1      22.846   3.867   1.913  1.00  0.00    -0.388 OA
ATOM     34  H   UNL     1      21.977   3.417   1.922  1.00  0.00     0.211 HD
ENDBRANCH  29  33
ENDBRANCH  28  29
BRANCH  28  35
ATOM     35  O   UNL     1      24.653   4.396  -1.236  1.00  0.00    -0.388 OA
ATOM     36  H   UNL     1      24.254   4.812  -2.035  1.00  0.00     0.211 HD
ENDBRANCH  28  35
ENDBRANCH   5  28
BRANCH   6  37
ATOM     37  N   UNL     1      21.420   7.695  -0.552  1.00  0.00    -0.348 N 
ATOM     38  C   UNL     1      21.219   8.534   0.516  1.00  0.00     0.217 C 
ATOM     39  H   UNL     1      20.790   7.760  -1.346  1.00  0.00     0.163 HD
ATOM     40  C   UNL     1      19.893   9.246   0.497  1.00  0.00     0.114 C 
ATOM     41  O   UNL     1      22.042   8.710   1.408  1.00  0.00    -0.275 OA
ENDBRANCH   6  37
TORSDOF 16
ENDMDL
MODEL 3
REMARK VINA RESULT:    -7.169     71.570     74.575
REMARK INTER + INTRA:         -14.486
REMARK INTER:                 -11.878
REMARK INTRA:                  -2.607
REMARK UNBOUND:                -2.288
REMARK SMILES CC(=O)N[C@H]1[C@H]([C@H](O)[C@H](O)CO)O[C@@](O[C@@H]2[C@@H](O)[C@H](O)O[C@H](CO)[C@@H]2O)(C(=O)[O-])C[C@@H]1O
REMARK SMILES IDX 14 1 30 2 13 3 31 4 6 5 5 6 27 7 28 8 29 9 15 10 16 11 25 12
REMARK SMILES IDX 17 13 22 14 19 15 21 16 26 17 18 19 23 21 24 22 20 24 32 26
REMARK SMILES IDX 7 28 9 29 11 30 12 31 10 33 8 35 4 37 2 38 1 40 3 41
REMARK H PARENT 26 18 18 20 24 23 20 25 32 27 12 32 10 34 8 36 4 39
ROOT
ATOM      1  C   UNL     1      38.464  12.956  -5.626  1.00  0.00     0.213 C 
ATOM      2  C   UNL     1      38.046  13.487  -7.007  1.00  0.00     0.106 C 
ATOM      3  O   UNL     1      37.378  12.421  -4.842  1.00  0.00    -0.336 OA
ATOM      4  C   UNL     1      36.762  14.295  -6.966  1.00  0.00     0.145 C 
ATOM      5  C   UNL     1      36.057  12.961  -4.932  1.00  0.00     0.178 C 
ATOM      6  C   UNL     1      35.655  13.442  -6.341  1.00  0.00     0.142 C 
ENDROOT
BRANCH   1   7
ATOM      7  C   UNL     1      39.500  11.716  -5.921  1.00  0.00     0.101 C 
ATOM      8  O   UNL     1      39.422  10.724  -5.136  1.00  0.00    -0.544 OA
ATOM      9  O   UNL     1      40.219  11.840  -6.963  1.00  0.00    -0.544 OA
ENDBRANCH   1   7
BRANCH   1  10
ATOM     10  O   UNL     1      39.112  14.088  -4.948  1.00  0.00    -0.336 OA
BRANCH  10  11
ATOM     11  C   UNL     1      40.350  13.774  -4.286  1.00  0.00     0.187 C 
ATOM     12  C   UNL     1      41.414  14.865  -4.531  1.00  0.00     0.177 C 
ATOM     13  C   UNL     1      40.137  13.446  -2.802  1.00  0.00     0.202 C 
ATOM     14  C   UNL     1      41.364  16.030  -3.549  1.00  0.00     0.178 C 
ATOM     15  C   UNL     1      40.285  14.668  -1.871  1.00  0.00     0.279 C 
ATOM     16  O   UNL     1      41.345  15.559  -2.197  1.00  0.00    -0.342 OA
BRANCH  12  17
ATOM     17  O   UNL     1      41.391  15.325  -5.889  1.00  0.00    -0.387 OA
ATOM     18  H   UNL     1      41.217  14.538  -6.443  1.00  0.00     0.211 HD
ENDBRANCH  12  17
BRANCH  13  19
ATOM     19  O   UNL     1      41.066  12.405  -2.449  1.00  0.00    -0.385 OA
ATOM     20  H   UNL     1      41.379  12.683  -1.548  1.00  0.00     0.211 HD
ENDBRANCH  13  19
BRANCH  14  21
ATOM     21  C   UNL     1      40.277  17.066  -3.858  1.00  0.00     0.191 C 
BRANCH  21  22
ATOM     22  O   UNL     1      40.657  17.866  -4.980  1.00  0.00    -0.394 OA
ATOM     23  H   UNL     1      40.532  17.273  -5.751  1.00  0.00     0.210 HD
ENDBRANCH  21  22
ENDBRANCH  14  21
BRANCH  15  24
ATOM     24  O   UNL     1      39.087  15.416  -1.714  1.00  0.00    -0.366 OA
ATOM     25  H   UNL     1      38.752  15.647  -2.608  1.00  0.00     0.213 HD
ENDBRANCH  15  24
ENDBRANCH  10  11
ENDBRANCH   1  10
BRANCH   4  26
ATOM     26  O   UNL     1      36.941  15.512  -6.233  1.00  0.00    -0.391 OA
ATOM     27  H   UNL     1      36.051  15.901  -6.120  1.00  0.00     0.211 HD
ENDBRANCH   4  26
BRANCH   5  28
ATOM     28  C   UNL     1      35.741  13.996  -3.813  1.00  0.00     0.176 C 
BRANCH  28  29
ATOM     29  C   UNL     1      35.180  13.311  -2.546  1.00  0.00     0.171 C 
BRANCH  29  30
ATOM     30  C   UNL     1      36.134  13.390  -1.343  1.00  0.00     0.190 C 
BRANCH  30  31
ATOM     31  O   UNL     1      35.812  14.541  -0.551  1.00  0.00    -0.394 OA
ATOM     32  H   UNL     1      34.847  14.500  -0.412  1.00  0.00     0.210 HD
ENDBRANCH  30  31
ENDBRANCH  29  30
BRANCH  29  33
ATOM     33  O   UNL     1      33.956  13.965  -2.156  1.00  0.00    -0.388 OA
ATOM     34  H   UNL     1      33.854  14.712  -2.781  1.00  0.00     0.211 HD
ENDBRANCH  29  33
ENDBRANCH  28  29
BRANCH  28  35
ATOM     35  O   UNL     1      36.877  14.786  -3.460  1.00  0.00    -0.388 OA
ATOM     36  H   UNL     1      37.664  14.249  -3.711  1.00  0.00     0.211 HD
ENDBRANCH  28  35
ENDBRANCH   5  28
BRANCH   6  37
ATOM     37  N   UNL     1      35.342  12.278  -7.188  1.00  0.00    -0.348 N 
ATOM     38  C   UNL     1      34.165  12.177  -7.889  1.00  0.00     0.217 C 
ATOM     39  H   UNL     1      36.125  11.692  -7.466  1.00  0.00     0.163 HD
ATOM     40  C   UNL     1      34.093  10.983  -8.802  1.00  0.00     0.114 C 
ATOM     41  O   UNL     1      33.249  12.987  -7.801  1.00  0.00    -0.275 OA
ENDBRANCH   6  37
TORSDOF 16
ENDMDL
MODEL 4
REMARK VINA RESULT:    -7.159     69.013     71.770
REMARK INTER + INTRA:         -14.469
REMARK INTER:                 -11.988
REMARK INTRA:                  -2.481
REMARK UNBOUND:                -2.288
REMARK SMILES CC(=O)N[C@H]1[C@H]([C@H](O)[C@H](O)CO)O[C@@](O[C@@H]2[C@@H](O)[C@H](O)O[C@H](CO)[C@@H]2O)(C(=O)[O-])C[C@@H]1O
REMARK SMILES IDX 14 1 30 2 13 3 31 4 6 5 5 6 27 7 28 8 29 9 15 10 16 11 25 12
REMARK SMILES IDX 17 13 22 14 19 15 21 16 26 17 18 19 23 21 24 22 20 24 32 26
REMARK SMILES IDX 7 28 9 29 11 30 12 31 10 33 8 35 4 37 2 38 1 40 3 41
REMARK H PARENT 26 18 18 20 24 23 20 25 32 27 12 32 10 34 8 36 4 39
ROOT
ATOM      1  C   UNL     1      13.040 -66.463  49.969  1.00  0.00     0.213 C 
ATOM      2  C   UNL     1      14.139 -66.862  50.967  1.00  0.00     0.106 C 
ATOM      3  O   UNL     1      11.719 -66.388  50.540  1.00  0.00    -0.336 OA
ATOM      4  C   UNL     1      13.720 -67.994  51.887  1.00  0.00     0.145 C 
ATOM      5  C   UNL     1      11.314 -67.255  51.602  1.00  0.00     0.178 C 
ATOM      6  C   UNL     1      12.430 -67.598  52.610  1.00  0.00     0.142 C 
ENDROOT
BRANCH   1   7
ATOM      7  C   UNL     1      13.431 -64.952  49.457  1.00  0.00     0.101 C 
ATOM      8  O   UNL     1      12.490 -64.103  49.455  1.00  0.00    -0.544 OA
ATOM      9  O   UNL     1      14.662 -64.764  49.196  1.00  0.00    -0.544 OA
ENDBRANCH   1   7
BRANCH   1  10
ATOM     10  O   UNL     1      13.106 -67.461  48.891  1.00  0.00    -0.336 OA
BRANCH  10  11
ATOM     11  C   UNL     1      12.909 -66.940  47.564  1.00  0.00     0.187 C 
ATOM     12  C   UNL     1      14.045 -67.374  46.613  1.00  0.00     0.177 C 
ATOM     13  C   UNL     1      11.507 -67.255  47.029  1.00  0.00     0.202 C 
ATOM     14  C   UNL     1      13.829 -68.727  45.946  1.00  0.00     0.178 C 
ATOM     15  C   UNL     1      11.434 -68.562  46.212  1.00  0.00     0.279 C 
ATOM     16  O   UNL     1      12.534 -68.798  45.341  1.00  0.00    -0.342 OA
BRANCH  12  17
ATOM     17  O   UNL     1      15.324 -67.307  47.259  1.00  0.00    -0.387 OA
ATOM     18  H   UNL     1      15.146 -67.287  48.220  1.00  0.00     0.211 HD
ENDBRANCH  12  17
BRANCH  13  19
ATOM     19  O   UNL     1      11.076 -66.126  46.247  1.00  0.00    -0.385 OA
ATOM     20  H   UNL     1      10.085 -66.178  46.309  1.00  0.00     0.211 HD
ENDBRANCH  13  19
BRANCH  14  21
ATOM     21  C   UNL     1      14.162 -69.929  46.839  1.00  0.00     0.191 C 
BRANCH  21  22
ATOM     22  O   UNL     1      13.942 -69.603  48.213  1.00  0.00    -0.394 OA
ATOM     23  H   UNL     1      13.307 -68.857  48.184  1.00  0.00     0.210 HD
ENDBRANCH  21  22
ENDBRANCH  14  21
BRANCH  15  24
ATOM     24  O   UNL     1      11.219 -69.721  47.006  1.00  0.00    -0.366 OA
ATOM     25  H   UNL     1      10.366 -69.614  47.479  1.00  0.00     0.213 HD
ENDBRANCH  15  24
ENDBRANCH  10  11
ENDBRANCH   1  10
BRANCH   4  26
ATOM     26  O   UNL     1      13.540 -69.213  51.157  1.00  0.00    -0.391 OA
ATOM     27  H   UNL     1      13.121 -69.845  51.774  1.00  0.00     0.211 HD
ENDBRANCH   4  26
BRANCH   5  28
ATOM     28  C   UNL     1      10.526 -68.502  51.108  1.00  0.00     0.176 C 
BRANCH  28  29
ATOM     29  C   UNL     1       9.047 -68.160  50.812  1.00  0.00     0.171 C 
BRANCH  29  30
ATOM     30  C   UNL     1       8.506 -67.015  51.684  1.00  0.00     0.190 C 
BRANCH  30  31
ATOM     31  O   UNL     1       8.653 -65.770  50.987  1.00  0.00    -0.394 OA
ATOM     32  H   UNL     1       7.855 -65.253  51.207  1.00  0.00     0.210 HD
ENDBRANCH  30  31
ENDBRANCH  29  30
BRANCH  29  33
ATOM     33  O   UNL     1       8.925 -67.737  49.439  1.00  0.00    -0.388 OA
ATOM     34  H   UNL     1       8.109 -68.167  49.110  1.00  0.00     0.211 HD
ENDBRANCH  29  33
ENDBRANCH  28  29
BRANCH  28  35
ATOM     35  O   UNL     1      11.113 -69.100  49.952  1.00  0.00    -0.388 OA
ATOM     36  H   UNL     1      11.996 -69.428  50.241  1.00  0.00     0.211 HD
ENDBRANCH  28  35
ENDBRANCH   5  28
BRANCH   6  37
ATOM     37  N   UNL     1      12.656 -66.448  53.504  1.00  0.00    -0.348 N 
ATOM     38  C   UNL     1      11.892 -66.229  54.623  1.00  0.00     0.217 C 
ATOM     39  H   UNL     1      13.560 -65.987  53.434  1.00  0.00     0.163 HD
ATOM     40  C   UNL     1      12.367 -65.085  55.478  1.00  0.00     0.114 C 
ATOM     41  O   UNL     1      10.913 -66.904  54.922  1.00  0.00    -0.275 OA
ENDBRANCH   6  37
TORSDOF 16
ENDMDL
MODEL 5
REMARK VINA RESULT:    -7.156     74.140     76.458
REMARK INTER + INTRA:         -14.465
REMARK INTER:                 -11.881
REMARK INTRA:                  -2.584
REMARK UNBOUND:                -2.288
REMARK SMILES CC(=O)N[C@H]1[C@H]([C@H](O)[C@H](O)CO)O[C@@](O[C@@H]2[C@@H](O)[C@H](O)O[C@H](CO)[C@@H]2O)(C(=O)[O-])C[C@@H]1O
REMARK SMILES IDX 14 1 30 2 13 3 31 4 6 5 5 6 27 7 28 8 29 9 15 10 16 11 25 12
REMARK SMILES IDX 17 13 22 14 19 15 21 16 26 17 18 19 23 21 24 22 20 24 32 26
REMARK SMILES IDX 7 28 9 29 11 30 12 31 10 33 8 35 4 37 2 38 1 40 3 41
REMARK H PARENT 26 18 18 20 24 23 20 25 32 27 12 32 10 34 8 36 4 39
ROOT
ATOM      1  C   UNL     1      -8.197 -57.927  45.056  1.00  0.00     0.213 C 
ATOM      2  C   UNL     1      -9.406 -56.984  44.944  1.00  0.00     0.106 C 
ATOM      3  O   UNL     1      -7.208 -57.750  44.022  1.00  0.00    -0.336 OA
ATOM      4  C   UNL     1      -9.915 -56.841  43.521  1.00  0.00     0.145 C 
ATOM      5  C   UNL     1      -7.577 -57.361  42.696  1.00  0.00     0.178 C 
ATOM      6  C   UNL     1      -8.764 -56.379  42.624  1.00  0.00     0.142 C 
ENDROOT
BRANCH   1   7
ATOM      7  C   UNL     1      -7.473 -57.554  46.483  1.00  0.00     0.101 C 
ATOM      8  O   UNL     1      -8.207 -56.998  47.353  1.00  0.00    -0.544 OA
ATOM      9  O   UNL     1      -6.266 -57.940  46.601  1.00  0.00    -0.544 OA
ENDBRANCH   1   7
BRANCH   1  10
ATOM     10  O   UNL     1      -8.756 -59.287  45.043  1.00  0.00    -0.336 OA
BRANCH  10  11
ATOM     11  C   UNL     1      -9.255 -59.754  46.309  1.00  0.00     0.187 C 
ATOM     12  C   UNL     1     -10.698 -60.285  46.185  1.00  0.00     0.177 C 
ATOM     13  C   UNL     1      -8.291 -60.745  46.972  1.00  0.00     0.202 C 
ATOM     14  C   UNL     1     -10.801 -61.751  45.780  1.00  0.00     0.178 C 
ATOM     15  C   UNL     1      -8.593 -62.222  46.638  1.00  0.00     0.279 C 
ATOM     16  O   UNL     1      -9.971 -62.571  46.610  1.00  0.00    -0.342 OA
BRANCH  12  17
ATOM     17  O   UNL     1     -11.494 -59.450  45.332  1.00  0.00    -0.387 OA
ATOM     18  H   UNL     1     -11.480 -58.558  45.731  1.00  0.00     0.211 HD
ENDBRANCH  12  17
BRANCH  13  19
ATOM     19  O   UNL     1      -8.335 -60.512  48.392  1.00  0.00    -0.385 OA
ATOM     20  H   UNL     1      -8.829 -61.304  48.732  1.00  0.00     0.211 HD
ENDBRANCH  13  19
BRANCH  14  21
ATOM     21  C   UNL     1     -10.615 -62.003  44.279  1.00  0.00     0.191 C 
BRANCH  21  22
ATOM     22  O   UNL     1     -10.752 -60.782  43.549  1.00  0.00    -0.394 OA
ATOM     23  H   UNL     1     -10.148 -60.159  44.007  1.00  0.00     0.210 HD
ENDBRANCH  21  22
ENDBRANCH  14  21
BRANCH  15  24
ATOM     24  O   UNL     1      -7.980 -62.673  45.437  1.00  0.00    -0.366 OA
ATOM     25  H   UNL     1      -7.329 -63.370  45.670  1.00  0.00     0.213 HD
ENDBRANCH  15  24
ENDBRANCH  10  11
ENDBRANCH   1  10
BRANCH   4  26
ATOM     26  O   UNL     1     -10.467 -58.074  43.044  1.00  0.00    -0.391 OA
ATOM     27  H   UNL     1     -11.439 -57.973  43.079  1.00  0.00     0.211 HD
ENDBRANCH   4  26
BRANCH   5  28
ATOM     28  C   UNL     1      -7.711 -58.564  41.719  1.00  0.00     0.176 C 
BRANCH  28  29
ATOM     29  C   UNL     1      -6.395 -59.371  41.626  1.00  0.00     0.171 C 
BRANCH  29  30
ATOM     30  C   UNL     1      -6.515 -60.790  42.204  1.00  0.00     0.190 C 
BRANCH  30  31
ATOM     31  O   UNL     1      -6.523 -60.725  43.637  1.00  0.00    -0.394 OA
ATOM     32  H   UNL     1      -6.587 -59.776  43.854  1.00  0.00     0.210 HD
ENDBRANCH  30  31
ENDBRANCH  29  30
BRANCH  29  33
ATOM     33  O   UNL     1      -6.023 -59.511  40.240  1.00  0.00    -0.388 OA
ATOM     34  H   UNL     1      -5.585 -60.384  40.179  1.00  0.00     0.211 HD
ENDBRANCH  29  33
ENDBRANCH  28  29
BRANCH  28  35
ATOM     35  O   UNL     1      -8.780 -59.442  42.074  1.00  0.00    -0.388 OA
ATOM     36  H   UNL     1      -8.583 -60.298  41.626  1.00  0.00     0.211 HD
ENDBRANCH  28  35
ENDBRANCH   5  28
BRANCH   6  37
ATOM     37  N   UNL     1      -8.310 -55.028  42.999  1.00  0.00    -0.348 N 
ATOM     38  C   UNL     1      -8.161 -54.023  42.077  1.00  0.00     0.217 C 
ATOM     39  H   UNL     1      -8.383 -54.779  43.982  1.00  0.00     0.163 HD
ATOM     40  C   UNL     1      -7.823 -52.684  42.676  1.00  0.00     0.114 C 
ATOM     41  O   UNL     1      -8.300 -54.181  40.869  1.00  0.00    -0.275 OA
ENDBRANCH   6  37
TORSDOF 16
ENDMDL
MODEL 6
REMARK VINA RESULT:    -7.140     21.674     24.502
REMARK INTER + INTRA:         -14.436
REMARK INTER:                 -12.938
REMARK INTRA:                  -1.498
REMARK UNBOUND:                -2.288
REMARK SMILES CC(=O)N[C@H]1[C@H]([C@H](O)[C@H](O)CO)O[C@@](O[C@@H]2[C@@H](O)[C@H](O)O[C@H](CO)[C@@H]2O)(C(=O)[O-])C[C@@H]1O
REMARK SMILES IDX 14 1 30 2 13 3 31 4 6 5 5 6 27 7 28 8 29 9 15 10 16 11 25 12
REMARK SMILES IDX 17 13 22 14 19 15 21 16 26 17 18 19 23 21 24 22 20 24 32 26
REMARK SMILES IDX 7 28 9 29 11 30 12 31 10 33 8 35 4 37 2 38 1 40 3 41
REMARK H PARENT 26 18 18 20 24 23 20 25 32 27 12 32 10 34 8 36 4 39
ROOT
ATOM      1  C   UNL     1      26.459 -19.331  53.580  1.00  0.00     0.213 C 
ATOM      2  C   UNL     1      25.315 -19.112  54.583  1.00  0.00     0.106 C 
ATOM      3  O   UNL     1      27.758 -18.937  54.066  1.00  0.00    -0.336 OA
ATOM      4  C   UNL     1      25.407 -17.779  55.304  1.00  0.00     0.145 C 
ATOM      5  C   UNL     1      27.917 -17.836  54.965  1.00  0.00     0.178 C 
ATOM      6  C   UNL     1      26.773 -17.674  55.987  1.00  0.00     0.142 C 
ENDROOT
BRANCH   1   7
ATOM      7  C   UNL     1      26.514 -20.950  53.315  1.00  0.00     0.101 C 
ATOM      8  O   UNL     1      25.460 -21.598  53.586  1.00  0.00    -0.544 OA
ATOM      9  O   UNL     1      27.586 -21.381  52.781  1.00  0.00    -0.544 OA
ENDBRANCH   1   7
BRANCH   1  10
ATOM     10  O   UNL     1      26.079 -18.572  52.378  1.00  0.00    -0.336 OA
BRANCH  10  11
ATOM     11  C   UNL     1      25.205 -19.265  51.470  1.00  0.00     0.187 C 
ATOM     12  C   UNL     1      23.975 -18.407  51.105  1.00  0.00     0.177 C 
ATOM     13  C   UNL     1      25.960 -19.807  50.250  1.00  0.00     0.202 C 
ATOM     14  C   UNL     1      24.190 -17.461  49.930  1.00  0.00     0.178 C 
ATOM     15  C   UNL     1      25.966 -18.840  49.047  1.00  0.00     0.279 C 
ATOM     16  O   UNL     1      24.742 -18.157  48.807  1.00  0.00    -0.342 OA
BRANCH  12  17
ATOM     17  O   UNL     1      23.463 -17.710  52.250  1.00  0.00    -0.387 OA
ATOM     18  H   UNL     1      23.278 -18.391  52.926  1.00  0.00     0.211 HD
ENDBRANCH  12  17
BRANCH  13  19
ATOM     19  O   UNL     1      25.371 -21.073  49.900  1.00  0.00    -0.385 OA
ATOM     20  H   UNL     1      25.465 -21.095  48.911  1.00  0.00     0.211 HD
ENDBRANCH  13  19
BRANCH  14  21
ATOM     21  C   UNL     1      24.943 -16.173  50.288  1.00  0.00     0.191 C 
BRANCH  21  22
ATOM     22  O   UNL     1      24.041 -15.206  50.832  1.00  0.00    -0.394 OA
ATOM     23  H   UNL     1      24.538 -14.361  50.784  1.00  0.00     0.210 HD
ENDBRANCH  21  22
ENDBRANCH  14  21
BRANCH  15  24
ATOM     24  O   UNL     1      27.023 -17.890  49.082  1.00  0.00    -0.366 OA
ATOM     25  H   UNL     1      26.730 -17.127  49.624  1.00  0.00     0.213 HD
ENDBRANCH  15  24
ENDBRANCH  10  11
ENDBRANCH   1  10
BRANCH   4  26
ATOM     26  O   UNL     1      25.207 -16.687  54.398  1.00  0.00    -0.391 OA
ATOM     27  H   UNL     1      24.240 -16.587  54.296  1.00  0.00     0.211 HD
ENDBRANCH   4  26
BRANCH   5  28
ATOM     28  C   UNL     1      28.295 -16.509  54.247  1.00  0.00     0.176 C 
BRANCH  28  29
ATOM     29  C   UNL     1      29.802 -16.458  53.902  1.00  0.00     0.171 C 
BRANCH  29  30
ATOM     30  C   UNL     1      30.528 -17.786  54.172  1.00  0.00     0.190 C 
BRANCH  30  31
ATOM     31  O   UNL     1      31.789 -17.791  53.489  1.00  0.00    -0.394 OA
ATOM     32  H   UNL     1      31.988 -16.854  53.302  1.00  0.00     0.210 HD
ENDBRANCH  30  31
ENDBRANCH  29  30
BRANCH  29  33
ATOM     33  O   UNL     1      29.957 -16.171  52.498  1.00  0.00    -0.388 OA
ATOM     34  H   UNL     1      30.910 -15.982  52.378  1.00  0.00     0.211 HD
ENDBRANCH  29  33
ENDBRANCH  28  29
BRANCH  28  35
ATOM     35  O   UNL     1      27.531 -16.289  53.061  1.00  0.00    -0.388 OA
ATOM     36  H   UNL     1      26.660 -15.943  53.365  1.00  0.00     0.211 HD
ENDBRANCH  28  35
ENDBRANCH   5  28
BRANCH   6  37
ATOM     37  N   UNL     1      26.913 -18.688  57.047  1.00  0.00    -0.348 N 
ATOM     38  C   UNL     1      27.986 -18.708  57.903  1.00  0.00     0.217 C 
ATOM     39  H   UNL     1      26.070 -19.190  57.313  1.00  0.00     0.163 HD
ATOM     40  C   UNL     1      27.878 -19.732  59.002  1.00  0.00     0.114 C 
ATOM     41  O   UNL     1      28.951 -17.957  57.805  1.00  0.00    -0.275 OA
ENDBRANCH   6  37
TORSDOF 16
ENDMDL
MODEL 7
REMARK VINA RESULT:    -7.094     66.686     69.684
REMARK INTER + INTRA:         -14.358
REMARK INTER:                 -12.061
REMARK INTRA:                  -2.297
REMARK UNBOUND:                -2.288
REMARK SMILES CC(=O)N[C@H]1[C@H]([C@H](O)[C@H](O)CO)O[C@@](O[C@@H]2[C@@H](O)[C@H](O)O[C@H](CO)[C@@H]2O)(C(=O)[O-])C[C@@H]1O
REMARK SMILES IDX 14 1 30 2 13 3 31 4 6 5 5 6 27 7 28 8 29 9 15 10 16 11 25 12
REMARK SMILES IDX 17 13 22 14 19 15 21 16 26 17 18 19 23 21 24 22 20 24 32 26
REMARK SMILES IDX 7 28 9 29 11 30 12 31 10 33 8 35 4 37 2 38 1 40 3 41
REMARK H PARENT 26 18 18 20 24 23 20 25 32 27 12 32 10 34 8 36 4 39
ROOT
ATOM      1  C   UNL     1      41.119  13.255   0.437  1.00  0.00     0.213 C 
ATOM      2  C   UNL     1      39.585  13.234   0.533  1.00  0.00     0.106 C 
ATOM      3  O   UNL     1      41.790  13.457   1.698  1.00  0.00    -0.336 OA
ATOM      4  C   UNL     1      39.034  14.318   1.441  1.00  0.00     0.145 C 
ATOM      5  C   UNL     1      41.216  14.267   2.727  1.00  0.00     0.178 C 
ATOM      6  C   UNL     1      39.679  14.186   2.824  1.00  0.00     0.142 C 
ENDROOT
BRANCH   1   7
ATOM      7  C   UNL     1      41.552  11.766  -0.105  1.00  0.00     0.101 C 
ATOM      8  O   UNL     1      42.419  11.151   0.584  1.00  0.00    -0.544 OA
ATOM      9  O   UNL     1      40.908  11.344  -1.118  1.00  0.00    -0.544 OA
ENDBRANCH   1   7
BRANCH   1  10
ATOM     10  O   UNL     1      41.439  14.323  -0.522  1.00  0.00    -0.336 OA
BRANCH  10  11
ATOM     11  C   UNL     1      42.763  14.263  -1.081  1.00  0.00     0.187 C 
ATOM     12  C   UNL     1      42.721  14.127  -2.618  1.00  0.00     0.177 C 
ATOM     13  C   UNL     1      43.644  15.420  -0.592  1.00  0.00     0.202 C 
ATOM     14  C   UNL     1      42.632  15.451  -3.369  1.00  0.00     0.178 C 
ATOM     15  C   UNL     1      43.621  16.652  -1.521  1.00  0.00     0.279 C 
ATOM     16  O   UNL     1      43.635  16.365  -2.914  1.00  0.00    -0.342 OA
BRANCH  12  17
ATOM     17  O   UNL     1      41.692  13.219  -3.037  1.00  0.00    -0.387 OA
ATOM     18  H   UNL     1      41.192  12.981  -2.231  1.00  0.00     0.211 HD
ENDBRANCH  12  17
BRANCH  13  19
ATOM     19  O   UNL     1      44.981  14.911  -0.431  1.00  0.00    -0.385 OA
ATOM     20  H   UNL     1      45.157  15.053   0.537  1.00  0.00     0.211 HD
ENDBRANCH  13  19
BRANCH  14  21
ATOM     21  C   UNL     1      41.222  16.054  -3.415  1.00  0.00     0.191 C 
BRANCH  21  22
ATOM     22  O   UNL     1      41.249  17.333  -4.053  1.00  0.00    -0.394 OA
ATOM     23  H   UNL     1      42.205  17.527  -4.161  1.00  0.00     0.210 HD
ENDBRANCH  21  22
ENDBRANCH  14  21
BRANCH  15  24
ATOM     24  O   UNL     1      42.558  17.555  -1.248  1.00  0.00    -0.366 OA
ATOM     25  H   UNL     1      42.920  18.467  -1.265  1.00  0.00     0.213 HD
ENDBRANCH  15  24
ENDBRANCH  10  11
ENDBRANCH   1  10
BRANCH   4  26
ATOM     26  O   UNL     1      39.269  15.620   0.893  1.00  0.00    -0.391 OA
ATOM     27  H   UNL     1      39.416  16.218   1.652  1.00  0.00     0.211 HD
ENDBRANCH   4  26
BRANCH   5  28
ATOM     28  C   UNL     1      41.758  15.725   2.733  1.00  0.00     0.176 C 
BRANCH  28  29
ATOM     29  C   UNL     1      43.284  15.764   2.984  1.00  0.00     0.171 C 
BRANCH  29  30
ATOM     30  C   UNL     1      43.738  17.015   3.753  1.00  0.00     0.190 C 
BRANCH  30  31
ATOM     31  O   UNL     1      42.689  17.993   3.739  1.00  0.00    -0.394 OA
ATOM     32  H   UNL     1      41.860  17.487   3.829  1.00  0.00     0.210 HD
ENDBRANCH  30  31
ENDBRANCH  29  30
BRANCH  29  33
ATOM     33  O   UNL     1      43.662  14.621   3.778  1.00  0.00    -0.388 OA
ATOM     34  H   UNL     1      44.586  14.426   3.523  1.00  0.00     0.211 HD
ENDBRANCH  29  33
ENDBRANCH  28  29
BRANCH  28  35
ATOM     35  O   UNL     1      41.460  16.427   1.525  1.00  0.00    -0.388 OA
ATOM     36  H   UNL     1      41.515  15.755   0.806  1.00  0.00     0.211 HD
ENDBRANCH  28  35
ENDBRANCH   5  28
BRANCH   6  37
ATOM     37  N   UNL     1      39.292  12.919   3.469  1.00  0.00    -0.348 N 
ATOM     38  C   UNL     1      38.053  12.731   4.030  1.00  0.00     0.217 C 
ATOM     39  H   UNL     1      39.851  12.101   3.240  1.00  0.00     0.163 HD
ATOM     40  C   UNL     1      37.803  11.328   4.514  1.00  0.00     0.114 C 
ATOM     41  O   UNL     1      37.208  13.614   4.125  1.00  0.00    -0.275 OA
ENDBRANCH   6  37
TORSDOF 16
ENDMDL
MODEL 8
REMARK VINA RESULT:    -7.083     65.587     67.956
REMARK INTER + INTRA:         -14.339
REMARK INTER:                 -11.497
REMARK INTRA:                  -2.842
REMARK UNBOUND:                -2.288
REMARK SMILES CC(=O)N[C@H]1[C@H]([C@H](O)[C@H](O)CO)O[C@@](O[C@@H]2[C@@H](O)[C@H](O)O[C@H](CO)[C@@H]2O)(C(=O)[O-])C[C@@H]1O
REMARK SMILES IDX 14 1 30 2 13 3 31 4 6 5 5 6 27 7 28 8 29 9 15 10 16 11 25 12
REMARK SMILES IDX 17 13 22 14 19 15 21 16 26 17 18 19 23 21 24 22 20 24 32 26
REMARK SMILES IDX 7 28 9 29 11 30 12 31 10 33 8 35 4 37 2 38 1 40 3 41
REMARK H PARENT 26 18 18 20 24 23 20 25 32 27 12 32 10 34 8 36 4 39
ROOT
ATOM      1  C   UNL     1      70.311  17.661  11.301  1.00  0.00     0.213 C 
ATOM      2  C   UNL     1      69.496  18.619  12.185  1.00  0.00     0.106 C 
ATOM      3  O   UNL     1      69.625  16.440  10.959  1.00  0.00    -0.336 OA
ATOM      4  C   UNL     1      68.757  17.907  13.304  1.00  0.00     0.145 C 
ATOM      5  C   UNL     1      68.702  15.825  11.862  1.00  0.00     0.178 C 
ATOM      6  C   UNL     1      67.869  16.816  12.700  1.00  0.00     0.142 C 
ENDROOT
BRANCH   1   7
ATOM      7  C   UNL     1      70.580  18.471   9.898  1.00  0.00     0.101 C 
ATOM      8  O   UNL     1      70.237  17.875   8.834  1.00  0.00    -0.544 OA
ATOM      9  O   UNL     1      71.027  19.656  10.026  1.00  0.00    -0.544 OA
ENDBRANCH   1   7
BRANCH   1  10
ATOM     10  O   UNL     1      71.550  17.394  12.047  1.00  0.00    -0.336 OA
BRANCH  10  11
ATOM     11  C   UNL     1      72.755  17.427  11.261  1.00  0.00     0.187 C 
ATOM     12  C   UNL     1      73.953  17.943  12.086  1.00  0.00     0.177 C 
ATOM     13  C   UNL     1      73.020  16.087  10.565  1.00  0.00     0.202 C 
ATOM     14  C   UNL     1      74.685  16.868  12.879  1.00  0.00     0.178 C 
ATOM     15  C   UNL     1      73.923  15.135  11.379  1.00  0.00     0.279 C 
ATOM     16  O   UNL     1      75.018  15.753  12.044  1.00  0.00    -0.342 OA
BRANCH  12  17
ATOM     17  O   UNL     1      73.577  19.046  12.924  1.00  0.00    -0.387 OA
ATOM     18  H   UNL     1      72.726  18.800  13.336  1.00  0.00     0.211 HD
ENDBRANCH  12  17
BRANCH  13  19
ATOM     19  O   UNL     1      73.590  16.371   9.275  1.00  0.00    -0.385 OA
ATOM     20  H   UNL     1      73.701  17.359   9.294  1.00  0.00     0.211 HD
ENDBRANCH  13  19
BRANCH  14  21
ATOM     21  C   UNL     1      73.994  16.473  14.191  1.00  0.00     0.191 C 
BRANCH  21  22
ATOM     22  O   UNL     1      72.614  16.845  14.157  1.00  0.00    -0.394 OA
ATOM     23  H   UNL     1      72.625  17.783  13.869  1.00  0.00     0.210 HD
ENDBRANCH  21  22
ENDBRANCH  14  21
BRANCH  15  24
ATOM     24  O   UNL     1      73.213  14.330  12.311  1.00  0.00    -0.366 OA
ATOM     25  H   UNL     1      72.467  14.860  12.666  1.00  0.00     0.213 HD
ENDBRANCH  15  24
ENDBRANCH  10  11
ENDBRANCH   1  10
BRANCH   4  26
ATOM     26  O   UNL     1      69.673  17.348  14.253  1.00  0.00    -0.391 OA
ATOM     27  H   UNL     1      69.214  16.591  14.668  1.00  0.00     0.211 HD
ENDBRANCH   4  26
BRANCH   5  28
ATOM     28  C   UNL     1      69.340  14.685  12.708  1.00  0.00     0.176 C 
BRANCH  28  29
ATOM     29  C   UNL     1      69.460  13.374  11.897  1.00  0.00     0.171 C 
BRANCH  29  30
ATOM     30  C   UNL     1      68.187  13.035  11.105  1.00  0.00     0.190 C 
BRANCH  30  31
ATOM     31  O   UNL     1      67.074  12.938  12.005  1.00  0.00    -0.394 OA
ATOM     32  H   UNL     1      66.749  13.851  12.116  1.00  0.00     0.210 HD
ENDBRANCH  30  31
ENDBRANCH  29  30
BRANCH  29  33
ATOM     33  O   UNL     1      70.529  13.507  10.939  1.00  0.00    -0.388 OA
ATOM     34  H   UNL     1      71.194  14.079  11.373  1.00  0.00     0.211 HD
ENDBRANCH  29  33
ENDBRANCH  28  29
BRANCH  28  35
ATOM     35  O   UNL     1      70.622  15.039  13.228  1.00  0.00    -0.388 OA
ATOM     36  H   UNL     1      71.239  15.008  12.460  1.00  0.00     0.211 HD
ENDBRANCH  28  35
ENDBRANCH   5  28
BRANCH   6  37
ATOM     37  N   UNL     1      66.809  17.402  11.860  1.00  0.00    -0.348 N 
ATOM     38  C   UNL     1      65.600  16.780  11.667  1.00  0.00     0.217 C 
ATOM     39  H   UNL     1      66.881  18.396  11.662  1.00  0.00     0.163 HD
ATOM     40  C   UNL     1      64.603  17.600  10.894  1.00  0.00     0.114 C 
ATOM     41  O   UNL     1      65.335  15.661  12.092  1.00  0.00    -0.275 OA
ENDBRANCH   6  37
TORSDOF 16
ENDMDL
MODEL 9
REMARK VINA RESULT:    -6.935     63.025     66.583
REMARK INTER + INTRA:         -14.088
REMARK INTER:                 -11.232
REMARK INTRA:                  -2.856
REMARK UNBOUND:                -2.288
REMARK SMILES CC(=O)N[C@H]1[C@H]([C@H](O)[C@H](O)CO)O[C@@](O[C@@H]2[C@@H](O)[C@H](O)O[C@H](CO)[C@@H]2O)(C(=O)[O-])C[C@@H]1O
REMARK SMILES IDX 14 1 30 2 13 3 31 4 6 5 5 6 27 7 28 8 29 9 15 10 16 11 25 12
REMARK SMILES IDX 17 13 22 14 19 15 21 16 26 17 18 19 23 21 24 22 20 24 32 26
REMARK SMILES IDX 7 28 9 29 11 30 12 31 10 33 8 35 4 37 2 38 1 40 3 41
REMARK H PARENT 26 18 18 20 24 23 20 25 32 27 12 32 10 34 8 36 4 39
ROOT
ATOM      1  C   UNL     1      68.027  14.847  12.184  1.00  0.00     0.213 C 
ATOM      2  C   UNL     1      68.899  13.999  13.125  1.00  0.00     0.106 C 
ATOM      3  O   UNL     1      68.773  15.669  11.264  1.00  0.00    -0.336 OA
ATOM      4  C   UNL     1      70.081  14.766  13.688  1.00  0.00     0.145 C 
ATOM      5  C   UNL     1      70.038  16.232  11.623  1.00  0.00     0.178 C 
ATOM      6  C   UNL     1      70.905  15.335  12.530  1.00  0.00     0.142 C 
ENDROOT
BRANCH   1   7
ATOM      7  C   UNL     1      67.170  13.774  11.284  1.00  0.00     0.101 C 
ATOM      8  O   UNL     1      66.854  14.151  10.116  1.00  0.00    -0.544 OA
ATOM      9  O   UNL     1      66.982  12.636  11.821  1.00  0.00    -0.544 OA
ENDBRANCH   1   7
BRANCH   1  10
ATOM     10  O   UNL     1      67.174  15.659  13.064  1.00  0.00    -0.336 OA
BRANCH  10  11
ATOM     11  C   UNL     1      65.811  15.806  12.626  1.00  0.00     0.187 C 
ATOM     12  C   UNL     1      64.834  15.832  13.820  1.00  0.00     0.177 C 
ATOM     13  C   UNL     1      65.643  16.992  11.668  1.00  0.00     0.202 C 
ATOM     14  C   UNL     1      64.621  17.211  14.433  1.00  0.00     0.178 C 
ATOM     15  C   UNL     1      65.252  18.308  12.375  1.00  0.00     0.279 C 
ATOM     16  O   UNL     1      64.301  18.176  13.425  1.00  0.00    -0.342 OA
BRANCH  12  17
ATOM     17  O   UNL     1      65.197  14.867  14.817  1.00  0.00    -0.387 OA
ATOM     18  H   UNL     1      66.064  15.150  15.170  1.00  0.00     0.211 HD
ENDBRANCH  12  17
BRANCH  13  19
ATOM     19  O   UNL     1      64.666  16.619  10.680  1.00  0.00    -0.385 OA
ATOM     20  H   UNL     1      64.360  15.727  10.995  1.00  0.00     0.211 HD
ENDBRANCH  13  19
BRANCH  14  21
ATOM     21  C   UNL     1      65.742  17.657  15.382  1.00  0.00     0.191 C 
BRANCH  21  22
ATOM     22  O   UNL     1      66.943  16.932  15.108  1.00  0.00    -0.394 OA
ATOM     23  H   UNL     1      66.657  16.214  14.504  1.00  0.00     0.210 HD
ENDBRANCH  21  22
ENDBRANCH  14  21
BRANCH  15  24
ATOM     24  O   UNL     1      66.363  19.054  12.852  1.00  0.00    -0.366 OA
ATOM     25  H   UNL     1      66.979  19.199  12.101  1.00  0.00     0.213 HD
ENDBRANCH  15  24
ENDBRANCH  10  11
ENDBRANCH   1  10
BRANCH   4  26
ATOM     26  O   UNL     1      69.647  15.812  14.565  1.00  0.00    -0.391 OA
ATOM     27  H   UNL     1      70.083  15.651  15.425  1.00  0.00     0.211 HD
ENDBRANCH   4  26
BRANCH   5  28
ATOM     28  C   UNL     1      69.933  17.701  12.128  1.00  0.00     0.176 C 
BRANCH  28  29
ATOM     29  C   UNL     1      69.792  18.697  10.953  1.00  0.00     0.171 C 
BRANCH  29  30
ATOM     30  C   UNL     1      70.675  18.337   9.747  1.00  0.00     0.190 C 
BRANCH  30  31
ATOM     31  O   UNL     1      69.845  17.971   8.637  1.00  0.00    -0.394 OA
ATOM     32  H   UNL     1      69.020  18.479   8.750  1.00  0.00     0.210 HD
ENDBRANCH  30  31
ENDBRANCH  29  30
BRANCH  29  33
ATOM     33  O   UNL     1      68.427  18.693  10.491  1.00  0.00    -0.388 OA
ATOM     34  H   UNL     1      67.914  19.129  11.201  1.00  0.00     0.211 HD
ENDBRANCH  29  33
ENDBRANCH  28  29
BRANCH  28  35
ATOM     35  O   UNL     1      68.853  17.892  13.041  1.00  0.00    -0.388 OA
ATOM     36  H   UNL     1      69.268  17.988  13.930  1.00  0.00     0.211 HD
ENDBRANCH  28  35
ENDBRANCH   5  28
BRANCH   6  37
ATOM     37  N   UNL     1      71.504  14.255  11.726  1.00  0.00    -0.348 N 
ATOM     38  C   UNL     1      72.779  14.336  11.225  1.00  0.00     0.217 C 
ATOM     39  H   UNL     1      71.064  13.341  11.791  1.00  0.00     0.163 HD
ATOM     40  C   UNL     1      73.257  13.078  10.551  1.00  0.00     0.114 C 
ATOM     41  O   UNL     1      73.486  15.333  11.322  1.00  0.00    -0.275 OA
ENDBRANCH   6  37
TORSDOF 16
ENDMDL
